LAMMPS (11 Aug 2017)
OMP_NUM_THREADS environment is not set. Defaulting to 1 thread. (../comm.cpp:90)
  using 1 OpenMP thread(s) per MPI task
# REAX potential for CHO system

units           real
dimension       3
boundary        p p p
atom_style      charge
read_data       data.rp3.2500new
  orthogonal box = (-2.64862 1.67171 0.347801) to (57.7071 62.0274 60.7035)
  3 by 4 by 7 MPI processor grid
  reading atoms ...
  6490 atoms

pair_style      reax/c lmp_control
pair_coeff      * * ffield.reax.cho C H O
Reading potential file ffield.reax.cho with DATE: 2011-02-18

neighbor        2.0 bin
neigh_modify    every 10 delay 0 check yes

fix             1 all qeq/reax 1 0.0 10.0 1e-6 reax/c

thermo          1000
thermo_style    multi

timestep        0.1

fix             4 all nvt temp 2500 2500 100
fix             6 all reax/c/species 10 10 100 speciesnvt_rp3.txt
WARNING: Resetting reneighboring criteria for fix reax/c/species (../fix_reaxc_species.cpp:103)
fix             7 all reax/c/bonds 100 bondnvt_rp3.txt

dump            1 all custom 1000 dump.rp3 id type x y z q
dump_modify     1 element C H O

run             2500000 #250ps
Neighbor list info ...
  update every 100 steps, delay 0 steps, check no
  max neighbors/atom: 2000, page size: 100000
  master list distance cutoff = 12
  ghost atom cutoff = 12
  binsize = 6, bins = 11 11 11
  2 neighbor lists, perpetual/occasional/extra = 2 0 0
  (1) pair reax/c, perpetual
      attributes: half, newton off, ghost
      pair build: half/bin/newtoff/ghost
      stencil: half/ghost/bin/3d/newtoff
      bin: standard
  (2) fix qeq/reax, perpetual, copy from (1)
      attributes: half, newton off, ghost
      pair build: copy
      stencil: none
      bin: none
Per MPI rank memory allocation (min/avg/max) = 38.54 | 46.17 | 51.52 Mbytes
---------------- Step        0 ----- CPU =      0.0000 (sec) ----------------
TotEng   =   -530209.4823 KinEng   =         0.0000 Temp     =         0.0000 
PotEng   =   -530209.4823 E_bond   =         0.0000 E_angle  =         0.0000 
E_dihed  =         0.0000 E_impro  =         0.0000 E_vdwl   =   -523597.3879 
E_coul   =     -6612.0944 E_long   =         0.0000 Press    =     49297.3143 
---------------- Step     1000 ----- CPU =     15.8077 (sec) ----------------
TotEng   =   -527445.9671 KinEng   =      3182.7824 Temp     =       164.5489 
PotEng   =   -530628.7495 E_bond   =         0.0000 E_angle  =         0.0000 
E_dihed  =         0.0000 E_impro  =         0.0000 E_vdwl   =   -523272.4794 
E_coul   =     -7356.2701 E_long   =         0.0000 Press    =    -52975.6806 
---------------- Step     2000 ----- CPU =     31.9421 (sec) ----------------
TotEng   =   -523008.7588 KinEng   =      9621.7119 Temp     =       497.4395 
PotEng   =   -532630.4707 E_bond   =         0.0000 E_angle  =         0.0000 
E_dihed  =         0.0000 E_impro  =         0.0000 E_vdwl   =   -524033.0720 
E_coul   =     -8597.3987 E_long   =         0.0000 Press    =     39092.4419 
---------------- Step     3000 ----- CPU =     48.9712 (sec) ----------------
TotEng   =   -517514.0821 KinEng   =     26680.4810 Temp     =      1379.3725 
PotEng   =   -544194.5631 E_bond   =         0.0000 E_angle  =         0.0000 
E_dihed  =         0.0000 E_impro  =         0.0000 E_vdwl   =   -534632.2639 
E_coul   =     -9562.2992 E_long   =         0.0000 Press    =    -36723.8201 
---------------- Step     4000 ----- CPU =     65.1597 (sec) ----------------
TotEng   =   -511040.7594 KinEng   =     42862.4634 Temp     =      2215.9760 
PotEng   =   -553903.2227 E_bond   =         0.0000 E_angle  =         0.0000 
E_dihed  =         0.0000 E_impro  =         0.0000 E_vdwl   =   -544867.5710 
E_coul   =     -9035.6517 E_long   =         0.0000 Press    =     28628.1330 
---------------- Step     5000 ----- CPU =     81.1715 (sec) ----------------
TotEng   =   -503836.5989 KinEng   =     53370.3414 Temp     =      2759.2300 
PotEng   =   -557206.9403 E_bond   =         0.0000 E_angle  =         0.0000 
E_dihed  =         0.0000 E_impro  =         0.0000 E_vdwl   =   -548469.1075 
E_coul   =     -8737.8329 E_long   =         0.0000 Press    =     23756.6348 
---------------- Step     6000 ----- CPU =     97.0342 (sec) ----------------
TotEng   =   -495902.9165 KinEng   =     48762.8726 Temp     =      2521.0253 
PotEng   =   -544665.7891 E_bond   =         0.0000 E_angle  =         0.0000 
E_dihed  =         0.0000 E_impro  =         0.0000 E_vdwl   =   -536016.3690 
E_coul   =     -8649.4202 E_long   =         0.0000 Press    =    -26569.0362 
---------------- Step     7000 ----- CPU =    112.6615 (sec) ----------------
TotEng   =   -487572.9762 KinEng   =     26704.0475 Temp     =      1380.5909 
PotEng   =   -514277.0237 E_bond   =         0.0000 E_angle  =         0.0000 
E_dihed  =         0.0000 E_impro  =         0.0000 E_vdwl   =   -506078.6424 
E_coul   =     -8198.3813 E_long   =         0.0000 Press    =     51366.9274 
---------------- Step     8000 ----- CPU =    127.8958 (sec) ----------------
TotEng   =   -479264.0787 KinEng   =     14746.9996 Temp     =       762.4153 
PotEng   =   -494011.0783 E_bond   =         0.0000 E_angle  =         0.0000 
E_dihed  =         0.0000 E_impro  =         0.0000 E_vdwl   =   -485466.1716 
E_coul   =     -8544.9068 E_long   =         0.0000 Press    =    -90862.9112 
---------------- Step     9000 ----- CPU =    143.5549 (sec) ----------------
TotEng   =   -471859.1503 KinEng   =     17453.4923 Temp     =       902.3401 
PotEng   =   -489312.6425 E_bond   =         0.0000 E_angle  =         0.0000 
E_dihed  =         0.0000 E_impro  =         0.0000 E_vdwl   =   -481263.3373 
E_coul   =     -8049.3053 E_long   =         0.0000 Press    =     66814.1442 
---------------- Step    10000 ----- CPU =    158.4595 (sec) ----------------
TotEng   =   -467620.9323 KinEng   =     55533.8804 Temp     =      2871.0843 
PotEng   =   -523154.8127 E_bond   =         0.0000 E_angle  =         0.0000 
E_dihed  =         0.0000 E_impro  =         0.0000 E_vdwl   =   -514828.6518 
E_coul   =     -8326.1609 E_long   =         0.0000 Press    =    -39300.3399 
---------------- Step    11000 ----- CPU =    173.2185 (sec) ----------------
TotEng   =   -469036.6376 KinEng   =     56875.1239 Temp     =      2940.4262 
PotEng   =   -525911.7615 E_bond   =         0.0000 E_angle  =         0.0000 
E_dihed  =         0.0000 E_impro  =         0.0000 E_vdwl   =   -517690.0693 
E_coul   =     -8221.6922 E_long   =         0.0000 Press    =    -27764.4202 
---------------- Step    12000 ----- CPU =    188.2155 (sec) ----------------
TotEng   =   -472779.6124 KinEng   =     45540.0442 Temp     =      2354.4061 
PotEng   =   -518319.6565 E_bond   =         0.0000 E_angle  =         0.0000 
E_dihed  =         0.0000 E_impro  =         0.0000 E_vdwl   =   -510294.5505 
E_coul   =     -8025.1060 E_long   =         0.0000 Press    =     30542.4409 
---------------- Step    13000 ----- CPU =    202.9993 (sec) ----------------
TotEng   =   -473527.8311 KinEng   =     48150.1878 Temp     =      2489.3497 
PotEng   =   -521678.0190 E_bond   =         0.0000 E_angle  =         0.0000 
E_dihed  =         0.0000 E_impro  =         0.0000 E_vdwl   =   -513538.4186 
E_coul   =     -8139.6004 E_long   =         0.0000 Press    =    -13706.9324 
---------------- Step    14000 ----- CPU =    217.5988 (sec) ----------------
TotEng   =   -470773.6024 KinEng   =     47350.6759 Temp     =      2448.0152 
PotEng   =   -518124.2784 E_bond   =         0.0000 E_angle  =         0.0000 
E_dihed  =         0.0000 E_impro  =         0.0000 E_vdwl   =   -509951.5725 
E_coul   =     -8172.7059 E_long   =         0.0000 Press    =      8196.1688 
---------------- Step    15000 ----- CPU =    233.1271 (sec) ----------------
TotEng   =   -468468.5816 KinEng   =     48295.3809 Temp     =      2496.8561 
PotEng   =   -516763.9625 E_bond   =         0.0000 E_angle  =         0.0000 
E_dihed  =         0.0000 E_impro  =         0.0000 E_vdwl   =   -508648.4992 
E_coul   =     -8115.4633 E_long   =         0.0000 Press    =     -6538.0391 
---------------- Step    16000 ----- CPU =    247.5075 (sec) ----------------
TotEng   =   -469624.7223 KinEng   =     49357.5292 Temp     =      2551.7689 
PotEng   =   -518982.2515 E_bond   =         0.0000 E_angle  =         0.0000 
E_dihed  =         0.0000 E_impro  =         0.0000 E_vdwl   =   -510856.1976 
E_coul   =     -8126.0538 E_long   =         0.0000 Press    =      1892.2286 
---------------- Step    17000 ----- CPU =    261.9640 (sec) ----------------
TotEng   =   -472195.7897 KinEng   =     46450.5254 Temp     =      2401.4777 
PotEng   =   -518646.3151 E_bond   =         0.0000 E_angle  =         0.0000 
E_dihed  =         0.0000 E_impro  =         0.0000 E_vdwl   =   -510574.9018 
E_coul   =     -8071.4133 E_long   =         0.0000 Press    =      2400.4663 
---------------- Step    18000 ----- CPU =    276.3494 (sec) ----------------
TotEng   =   -472646.9463 KinEng   =     46439.6109 Temp     =      2400.9134 
PotEng   =   -519086.5572 E_bond   =         0.0000 E_angle  =         0.0000 
E_dihed  =         0.0000 E_impro  =         0.0000 E_vdwl   =   -510980.2787 
E_coul   =     -8106.2785 E_long   =         0.0000 Press    =      -617.4517 
---------------- Step    19000 ----- CPU =    290.8790 (sec) ----------------
TotEng   =   -470567.9025 KinEng   =     48596.3808 Temp     =      2512.4177 
PotEng   =   -519164.2833 E_bond   =         0.0000 E_angle  =         0.0000 
E_dihed  =         0.0000 E_impro  =         0.0000 E_vdwl   =   -511014.2719 
E_coul   =     -8150.0114 E_long   =         0.0000 Press    =        89.8413 
---------------- Step    20000 ----- CPU =    305.4776 (sec) ----------------
TotEng   =   -468901.9482 KinEng   =     49824.9724 Temp     =      2575.9355 
PotEng   =   -518726.9206 E_bond   =         0.0000 E_angle  =         0.0000 
E_dihed  =         0.0000 E_impro  =         0.0000 E_vdwl   =   -510598.0340 
E_coul   =     -8128.8866 E_long   =         0.0000 Press    =      1442.6963 
---------------- Step    21000 ----- CPU =    320.2540 (sec) ----------------
TotEng   =   -469792.6359 KinEng   =     48696.7484 Temp     =      2517.6067 
PotEng   =   -518489.3844 E_bond   =         0.0000 E_angle  =         0.0000 
E_dihed  =         0.0000 E_impro  =         0.0000 E_vdwl   =   -510337.7025 
E_coul   =     -8151.6819 E_long   =         0.0000 Press    =       293.9137 
---------------- Step    22000 ----- CPU =    334.9787 (sec) ----------------
TotEng   =   -471693.0300 KinEng   =     47510.0344 Temp     =      2456.2540 
PotEng   =   -519203.0645 E_bond   =         0.0000 E_angle  =         0.0000 
E_dihed  =         0.0000 E_impro  =         0.0000 E_vdwl   =   -511091.4621 
E_coul   =     -8111.6023 E_long   =         0.0000 Press    =       321.9691 
---------------- Step    23000 ----- CPU =    349.9549 (sec) ----------------
TotEng   =   -472088.1672 KinEng   =     46837.9611 Temp     =      2421.5080 
PotEng   =   -518926.1282 E_bond   =         0.0000 E_angle  =         0.0000 
E_dihed  =         0.0000 E_impro  =         0.0000 E_vdwl   =   -510803.8235 
E_coul   =     -8122.3047 E_long   =         0.0000 Press    =     -1673.6239 
---------------- Step    24000 ----- CPU =    364.6169 (sec) ----------------
TotEng   =   -470561.1076 KinEng   =     47891.1819 Temp     =      2475.9592 
PotEng   =   -518452.2895 E_bond   =         0.0000 E_angle  =         0.0000 
E_dihed  =         0.0000 E_impro  =         0.0000 E_vdwl   =   -510313.8615 
E_coul   =     -8138.4280 E_long   =         0.0000 Press    =      1634.2187 
---------------- Step    25000 ----- CPU =    379.4563 (sec) ----------------
TotEng   =   -469131.2934 KinEng   =     48353.0171 Temp     =      2499.8359 
PotEng   =   -517484.3105 E_bond   =         0.0000 E_angle  =         0.0000 
E_dihed  =         0.0000 E_impro  =         0.0000 E_vdwl   =   -509276.1209 
E_coul   =     -8208.1897 E_long   =         0.0000 Press    =       603.1919 
---------------- Step    26000 ----- CPU =    395.0140 (sec) ----------------
TotEng   =   -469757.6281 KinEng   =     48929.1299 Temp     =      2529.6208 
PotEng   =   -518686.7580 E_bond   =         0.0000 E_angle  =         0.0000 
E_dihed  =         0.0000 E_impro  =         0.0000 E_vdwl   =   -510433.6588 
E_coul   =     -8253.0993 E_long   =         0.0000 Press    =      1245.2349 
---------------- Step    27000 ----- CPU =    410.1247 (sec) ----------------
TotEng   =   -471462.1400 KinEng   =     46944.3990 Temp     =      2427.0108 
PotEng   =   -518406.5390 E_bond   =         0.0000 E_angle  =         0.0000 
E_dihed  =         0.0000 E_impro  =         0.0000 E_vdwl   =   -510180.8998 
E_coul   =     -8225.6391 E_long   =         0.0000 Press    =     -2524.7026 
---------------- Step    28000 ----- CPU =    425.1978 (sec) ----------------
TotEng   =   -471856.7480 KinEng   =     47669.4236 Temp     =      2464.4943 
PotEng   =   -519526.1716 E_bond   =         0.0000 E_angle  =         0.0000 
E_dihed  =         0.0000 E_impro  =         0.0000 E_vdwl   =   -511309.9444 
E_coul   =     -8216.2271 E_long   =         0.0000 Press    =      2520.2952 
---------------- Step    29000 ----- CPU =    440.7355 (sec) ----------------
TotEng   =   -470529.8311 KinEng   =     49655.3979 Temp     =      2567.1686 
PotEng   =   -520185.2290 E_bond   =         0.0000 E_angle  =         0.0000 
E_dihed  =         0.0000 E_impro  =         0.0000 E_vdwl   =   -511983.2544 
E_coul   =     -8201.9746 E_long   =         0.0000 Press    =       297.9625 
---------------- Step    30000 ----- CPU =    456.0009 (sec) ----------------
TotEng   =   -469242.8452 KinEng   =     49401.1728 Temp     =      2554.0252 
PotEng   =   -518644.0180 E_bond   =         0.0000 E_angle  =         0.0000 
E_dihed  =         0.0000 E_impro  =         0.0000 E_vdwl   =   -510446.5415 
E_coul   =     -8197.4764 E_long   =         0.0000 Press    =       317.1024 
---------------- Step    31000 ----- CPU =    471.2554 (sec) ----------------
TotEng   =   -469647.7219 KinEng   =     50177.9985 Temp     =      2594.1869 
PotEng   =   -519825.7204 E_bond   =         0.0000 E_angle  =         0.0000 
E_dihed  =         0.0000 E_impro  =         0.0000 E_vdwl   =   -511686.5080 
E_coul   =     -8139.2124 E_long   =         0.0000 Press    =      3438.2531 
---------------- Step    32000 ----- CPU =    486.8668 (sec) ----------------
TotEng   =   -471077.1119 KinEng   =     47930.0955 Temp     =      2477.9710 
PotEng   =   -519007.2074 E_bond   =         0.0000 E_angle  =         0.0000 
E_dihed  =         0.0000 E_impro  =         0.0000 E_vdwl   =   -510824.9927 
E_coul   =     -8182.2147 E_long   =         0.0000 Press    =       710.7352 
---------------- Step    33000 ----- CPU =    502.6343 (sec) ----------------
TotEng   =   -471561.0395 KinEng   =     47281.8774 Temp     =      2444.4583 
PotEng   =   -518842.9169 E_bond   =         0.0000 E_angle  =         0.0000 
E_dihed  =         0.0000 E_impro  =         0.0000 E_vdwl   =   -510630.6743 
E_coul   =     -8212.2426 E_long   =         0.0000 Press    =      1434.0246 
---------------- Step    34000 ----- CPU =    518.5319 (sec) ----------------
TotEng   =   -470592.2705 KinEng   =     49390.9649 Temp     =      2553.4975 
PotEng   =   -519983.2354 E_bond   =         0.0000 E_angle  =         0.0000 
E_dihed  =         0.0000 E_impro  =         0.0000 E_vdwl   =   -511740.6672 
E_coul   =     -8242.5682 E_long   =         0.0000 Press    =      1176.3440 
---------------- Step    35000 ----- CPU =    534.8915 (sec) ----------------
TotEng   =   -469517.0731 KinEng   =     49362.3721 Temp     =      2552.0192 
PotEng   =   -518879.4453 E_bond   =         0.0000 E_angle  =         0.0000 
E_dihed  =         0.0000 E_impro  =         0.0000 E_vdwl   =   -510629.2965 
E_coul   =     -8250.1487 E_long   =         0.0000 Press    =      1718.2540 
---------------- Step    36000 ----- CPU =    551.2231 (sec) ----------------
TotEng   =   -469709.0124 KinEng   =     48495.3086 Temp     =      2507.1923 
PotEng   =   -518204.3210 E_bond   =         0.0000 E_angle  =         0.0000 
E_dihed  =         0.0000 E_impro  =         0.0000 E_vdwl   =   -510010.8256 
E_coul   =     -8193.4954 E_long   =         0.0000 Press    =     -1058.3988 
---------------- Step    37000 ----- CPU =    567.6528 (sec) ----------------
TotEng   =   -470807.3262 KinEng   =     47278.7517 Temp     =      2444.2967 
PotEng   =   -518086.0778 E_bond   =         0.0000 E_angle  =         0.0000 
E_dihed  =         0.0000 E_impro  =         0.0000 E_vdwl   =   -509946.7106 
E_coul   =     -8139.3673 E_long   =         0.0000 Press    =      1607.6171 
---------------- Step    38000 ----- CPU =    584.7351 (sec) ----------------
TotEng   =   -471289.0986 KinEng   =     47723.3420 Temp     =      2467.2819 
PotEng   =   -519012.4406 E_bond   =         0.0000 E_angle  =         0.0000 
E_dihed  =         0.0000 E_impro  =         0.0000 E_vdwl   =   -510829.9039 
E_coul   =     -8182.5367 E_long   =         0.0000 Press    =      1700.0932 
---------------- Step    39000 ----- CPU =    601.0877 (sec) ----------------
TotEng   =   -470604.0872 KinEng   =     47384.3677 Temp     =      2449.7570 
PotEng   =   -517988.4549 E_bond   =         0.0000 E_angle  =         0.0000 
E_dihed  =         0.0000 E_impro  =         0.0000 E_vdwl   =   -509747.5474 
E_coul   =     -8240.9075 E_long   =         0.0000 Press    =     -1032.1068 
---------------- Step    40000 ----- CPU =    617.4610 (sec) ----------------
TotEng   =   -469654.2333 KinEng   =     49087.1070 Temp     =      2537.7881 
PotEng   =   -518741.3403 E_bond   =         0.0000 E_angle  =         0.0000 
E_dihed  =         0.0000 E_impro  =         0.0000 E_vdwl   =   -510452.9378 
E_coul   =     -8288.4025 E_long   =         0.0000 Press    =       821.1904 
---------------- Step    41000 ----- CPU =    633.9480 (sec) ----------------
TotEng   =   -469735.2954 KinEng   =     49254.1324 Temp     =      2546.4233 
PotEng   =   -518989.4278 E_bond   =         0.0000 E_angle  =         0.0000 
E_dihed  =         0.0000 E_impro  =         0.0000 E_vdwl   =   -510644.4598 
E_coul   =     -8344.9680 E_long   =         0.0000 Press    =      3351.8714 
---------------- Step    42000 ----- CPU =    650.9804 (sec) ----------------
TotEng   =   -470794.0294 KinEng   =     47723.3868 Temp     =      2467.2842 
PotEng   =   -518517.4162 E_bond   =         0.0000 E_angle  =         0.0000 
E_dihed  =         0.0000 E_impro  =         0.0000 E_vdwl   =   -510180.7716 
E_coul   =     -8336.6446 E_long   =         0.0000 Press    =       499.4041 
---------------- Step    43000 ----- CPU =    666.9800 (sec) ----------------
TotEng   =   -471362.5951 KinEng   =     47966.5059 Temp     =      2479.8534 
PotEng   =   -519329.1009 E_bond   =         0.0000 E_angle  =         0.0000 
E_dihed  =         0.0000 E_impro  =         0.0000 E_vdwl   =   -510982.1162 
E_coul   =     -8346.9847 E_long   =         0.0000 Press    =       561.8611 
---------------- Step    44000 ----- CPU =    683.0665 (sec) ----------------
TotEng   =   -470686.2208 KinEng   =     48377.4756 Temp     =      2501.1004 
PotEng   =   -519063.6964 E_bond   =         0.0000 E_angle  =         0.0000 
E_dihed  =         0.0000 E_impro  =         0.0000 E_vdwl   =   -510791.5221 
E_coul   =     -8272.1742 E_long   =         0.0000 Press    =      1233.7499 
---------------- Step    45000 ----- CPU =    699.1322 (sec) ----------------
TotEng   =   -469585.4976 KinEng   =     49429.8980 Temp     =      2555.5103 
PotEng   =   -519015.3956 E_bond   =         0.0000 E_angle  =         0.0000 
E_dihed  =         0.0000 E_impro  =         0.0000 E_vdwl   =   -510754.4864 
E_coul   =     -8260.9092 E_long   =         0.0000 Press    =      1979.2681 
---------------- Step    46000 ----- CPU =    715.4407 (sec) ----------------
TotEng   =   -469443.8106 KinEng   =     48003.5679 Temp     =      2481.7695 
PotEng   =   -517447.3785 E_bond   =         0.0000 E_angle  =         0.0000 
E_dihed  =         0.0000 E_impro  =         0.0000 E_vdwl   =   -509224.6110 
E_coul   =     -8222.7676 E_long   =         0.0000 Press    =     -1232.2119 
---------------- Step    47000 ----- CPU =    731.9608 (sec) ----------------
TotEng   =   -470376.2955 KinEng   =     48524.4902 Temp     =      2508.7010 
PotEng   =   -518900.7858 E_bond   =         0.0000 E_angle  =         0.0000 
E_dihed  =         0.0000 E_impro  =         0.0000 E_vdwl   =   -510694.2771 
E_coul   =     -8206.5087 E_long   =         0.0000 Press    =      3131.1910 
---------------- Step    48000 ----- CPU =    749.1510 (sec) ----------------
TotEng   =   -471110.4131 KinEng   =     47631.3024 Temp     =      2462.5235 
PotEng   =   -518741.7154 E_bond   =         0.0000 E_angle  =         0.0000 
E_dihed  =         0.0000 E_impro  =         0.0000 E_vdwl   =   -510496.5070 
E_coul   =     -8245.2085 E_long   =         0.0000 Press    =     -1088.4137 
---------------- Step    49000 ----- CPU =    765.9793 (sec) ----------------
TotEng   =   -470755.1227 KinEng   =     47841.6751 Temp     =      2473.3997 
PotEng   =   -518596.7978 E_bond   =         0.0000 E_angle  =         0.0000 
E_dihed  =         0.0000 E_impro  =         0.0000 E_vdwl   =   -510304.4559 
E_coul   =     -8292.3419 E_long   =         0.0000 Press    =       728.5416 
---------------- Step    50000 ----- CPU =    782.4264 (sec) ----------------
TotEng   =   -469755.0667 KinEng   =     48992.1393 Temp     =      2532.8783 
PotEng   =   -518747.2060 E_bond   =         0.0000 E_angle  =         0.0000 
E_dihed  =         0.0000 E_impro  =         0.0000 E_vdwl   =   -510464.9168 
E_coul   =     -8282.2893 E_long   =         0.0000 Press    =       939.0350 
---------------- Step    51000 ----- CPU =    798.5210 (sec) ----------------
TotEng   =   -469431.7992 KinEng   =     49252.7794 Temp     =      2546.3533 
PotEng   =   -518684.5785 E_bond   =         0.0000 E_angle  =         0.0000 
E_dihed  =         0.0000 E_impro  =         0.0000 E_vdwl   =   -510408.0231 
E_coul   =     -8276.5555 E_long   =         0.0000 Press    =      1794.6419 
---------------- Step    52000 ----- CPU =    815.0375 (sec) ----------------
TotEng   =   -470159.3283 KinEng   =     49056.0147 Temp     =      2536.1807 
PotEng   =   -519215.3430 E_bond   =         0.0000 E_angle  =         0.0000 
E_dihed  =         0.0000 E_impro  =         0.0000 E_vdwl   =   -510962.1018 
E_coul   =     -8253.2412 E_long   =         0.0000 Press    =      -236.0711 
---------------- Step    53000 ----- CPU =    831.5484 (sec) ----------------
TotEng   =   -470963.5087 KinEng   =     47360.7608 Temp     =      2448.5366 
PotEng   =   -518324.2695 E_bond   =         0.0000 E_angle  =         0.0000 
E_dihed  =         0.0000 E_impro  =         0.0000 E_vdwl   =   -510050.4970 
E_coul   =     -8273.7725 E_long   =         0.0000 Press    =       305.1593 
---------------- Step    54000 ----- CPU =    847.8347 (sec) ----------------
TotEng   =   -470823.1401 KinEng   =     47191.9394 Temp     =      2439.8086 
PotEng   =   -518015.0795 E_bond   =         0.0000 E_angle  =         0.0000 
E_dihed  =         0.0000 E_impro  =         0.0000 E_vdwl   =   -509702.9989 
E_coul   =     -8312.0806 E_long   =         0.0000 Press    =     -1568.0527 
---------------- Step    55000 ----- CPU =    864.1327 (sec) ----------------
TotEng   =   -469899.4805 KinEng   =     48208.9461 Temp     =      2492.3875 
PotEng   =   -518108.4267 E_bond   =         0.0000 E_angle  =         0.0000 
E_dihed  =         0.0000 E_impro  =         0.0000 E_vdwl   =   -509796.5893 
E_coul   =     -8311.8374 E_long   =         0.0000 Press    =      3571.8970 
---------------- Step    56000 ----- CPU =    880.8653 (sec) ----------------
TotEng   =   -469384.2802 KinEng   =     48620.3960 Temp     =      2513.6593 
PotEng   =   -518004.6762 E_bond   =         0.0000 E_angle  =         0.0000 
E_dihed  =         0.0000 E_impro  =         0.0000 E_vdwl   =   -509693.7278 
E_coul   =     -8310.9484 E_long   =         0.0000 Press    =      1295.1484 
---------------- Step    57000 ----- CPU =    896.9364 (sec) ----------------
TotEng   =   -469998.8718 KinEng   =     48237.5655 Temp     =      2493.8671 
PotEng   =   -518236.4374 E_bond   =         0.0000 E_angle  =         0.0000 
E_dihed  =         0.0000 E_impro  =         0.0000 E_vdwl   =   -509982.0358 
E_coul   =     -8254.4015 E_long   =         0.0000 Press    =       183.6133 
---------------- Step    58000 ----- CPU =    913.2506 (sec) ----------------
TotEng   =   -470845.9873 KinEng   =     48242.6216 Temp     =      2494.1285 
PotEng   =   -519088.6089 E_bond   =         0.0000 E_angle  =         0.0000 
E_dihed  =         0.0000 E_impro  =         0.0000 E_vdwl   =   -510828.7535 
E_coul   =     -8259.8554 E_long   =         0.0000 Press    =      1322.8770 
---------------- Step    59000 ----- CPU =    929.6358 (sec) ----------------
TotEng   =   -470856.8724 KinEng   =     49232.2815 Temp     =      2545.2936 
PotEng   =   -520089.1539 E_bond   =         0.0000 E_angle  =         0.0000 
E_dihed  =         0.0000 E_impro  =         0.0000 E_vdwl   =   -511765.8088 
E_coul   =     -8323.3451 E_long   =         0.0000 Press    =       378.0805 
---------------- Step    60000 ----- CPU =    946.0710 (sec) ----------------
TotEng   =   -470039.0781 KinEng   =     47409.3535 Temp     =      2451.0488 
PotEng   =   -517448.4316 E_bond   =         0.0000 E_angle  =         0.0000 
E_dihed  =         0.0000 E_impro  =         0.0000 E_vdwl   =   -509102.2900 
E_coul   =     -8346.1416 E_long   =         0.0000 Press    =     -1936.3086 
---------------- Step    61000 ----- CPU =    962.1945 (sec) ----------------
TotEng   =   -469410.2529 KinEng   =     48622.3851 Temp     =      2513.7622 
PotEng   =   -518032.6380 E_bond   =         0.0000 E_angle  =         0.0000 
E_dihed  =         0.0000 E_impro  =         0.0000 E_vdwl   =   -509690.2555 
E_coul   =     -8342.3824 E_long   =         0.0000 Press    =       353.5065 
---------------- Step    62000 ----- CPU =    978.0070 (sec) ----------------
TotEng   =   -469716.2098 KinEng   =     47502.5782 Temp     =      2455.8685 
PotEng   =   -517218.7880 E_bond   =         0.0000 E_angle  =         0.0000 
E_dihed  =         0.0000 E_impro  =         0.0000 E_vdwl   =   -508985.3580 
E_coul   =     -8233.4300 E_long   =         0.0000 Press    =     -1938.0629 
---------------- Step    63000 ----- CPU =    993.9275 (sec) ----------------
TotEng   =   -470499.2034 KinEng   =     47960.6726 Temp     =      2479.5518 
PotEng   =   -518459.8760 E_bond   =         0.0000 E_angle  =         0.0000 
E_dihed  =         0.0000 E_impro  =         0.0000 E_vdwl   =   -510230.5604 
E_coul   =     -8229.3156 E_long   =         0.0000 Press    =      2719.5911 
---------------- Step    64000 ----- CPU =   1009.9281 (sec) ----------------
TotEng   =   -470719.5114 KinEng   =     47368.9720 Temp     =      2448.9611 
PotEng   =   -518088.4834 E_bond   =         0.0000 E_angle  =         0.0000 
E_dihed  =         0.0000 E_impro  =         0.0000 E_vdwl   =   -509809.6815 
E_coul   =     -8278.8019 E_long   =         0.0000 Press    =     -1876.2911 
---------------- Step    65000 ----- CPU =   1026.2431 (sec) ----------------
TotEng   =   -470158.5264 KinEng   =     48208.9472 Temp     =      2492.3875 
PotEng   =   -518367.4735 E_bond   =         0.0000 E_angle  =         0.0000 
E_dihed  =         0.0000 E_impro  =         0.0000 E_vdwl   =   -510111.5925 
E_coul   =     -8255.8811 E_long   =         0.0000 Press    =      2218.1359 
---------------- Step    66000 ----- CPU =   1042.7453 (sec) ----------------
TotEng   =   -469493.3189 KinEng   =     49404.0729 Temp     =      2554.1752 
PotEng   =   -518897.3918 E_bond   =         0.0000 E_angle  =         0.0000 
E_dihed  =         0.0000 E_impro  =         0.0000 E_vdwl   =   -510603.4878 
E_coul   =     -8293.9040 E_long   =         0.0000 Press    =     -1027.0644 
---------------- Step    67000 ----- CPU =   1058.4879 (sec) ----------------
TotEng   =   -469529.4470 KinEng   =     48690.1659 Temp     =      2517.2664 
PotEng   =   -518219.6130 E_bond   =         0.0000 E_angle  =         0.0000 
E_dihed  =         0.0000 E_impro  =         0.0000 E_vdwl   =   -509904.8204 
E_coul   =     -8314.7925 E_long   =         0.0000 Press    =      2310.8327 
---------------- Step    68000 ----- CPU =   1074.2941 (sec) ----------------
TotEng   =   -470287.1766 KinEng   =     47809.9334 Temp     =      2471.7587 
PotEng   =   -518097.1100 E_bond   =         0.0000 E_angle  =         0.0000 
E_dihed  =         0.0000 E_impro  =         0.0000 E_vdwl   =   -509795.9676 
E_coul   =     -8301.1424 E_long   =         0.0000 Press    =       171.3552 
---------------- Step    69000 ----- CPU =   1090.0321 (sec) ----------------
TotEng   =   -470847.3827 KinEng   =     48565.5212 Temp     =      2510.8223 
PotEng   =   -519412.9039 E_bond   =         0.0000 E_angle  =         0.0000 
E_dihed  =         0.0000 E_impro  =         0.0000 E_vdwl   =   -511116.0684 
E_coul   =     -8296.8355 E_long   =         0.0000 Press    =       188.8123 
---------------- Step    70000 ----- CPU =   1105.8937 (sec) ----------------
TotEng   =   -470490.8795 KinEng   =     47662.3052 Temp     =      2464.1263 
PotEng   =   -518153.1847 E_bond   =         0.0000 E_angle  =         0.0000 
E_dihed  =         0.0000 E_impro  =         0.0000 E_vdwl   =   -509813.8371 
E_coul   =     -8339.3476 E_long   =         0.0000 Press    =     -1776.4944 
---------------- Step    71000 ----- CPU =   1121.6263 (sec) ----------------
TotEng   =   -469605.8135 KinEng   =     48285.1098 Temp     =      2496.3251 
PotEng   =   -517890.9233 E_bond   =         0.0000 E_angle  =         0.0000 
E_dihed  =         0.0000 E_impro  =         0.0000 E_vdwl   =   -509553.7750 
E_coul   =     -8337.1483 E_long   =         0.0000 Press    =      1426.2106 
---------------- Step    72000 ----- CPU =   1137.2664 (sec) ----------------
TotEng   =   -469352.7190 KinEng   =     47615.3278 Temp     =      2461.6976 
PotEng   =   -516968.0469 E_bond   =         0.0000 E_angle  =         0.0000 
E_dihed  =         0.0000 E_impro  =         0.0000 E_vdwl   =   -508612.8994 
E_coul   =     -8355.1475 E_long   =         0.0000 Press    =      -444.7033 
---------------- Step    73000 ----- CPU =   1152.7609 (sec) ----------------
TotEng   =   -470029.5582 KinEng   =     48216.7279 Temp     =      2492.7898 
PotEng   =   -518246.2862 E_bond   =         0.0000 E_angle  =         0.0000 
E_dihed  =         0.0000 E_impro  =         0.0000 E_vdwl   =   -509896.1326 
E_coul   =     -8350.1536 E_long   =         0.0000 Press    =     -2023.1118 
---------------- Step    74000 ----- CPU =   1168.6626 (sec) ----------------
TotEng   =   -470766.2843 KinEng   =     47475.7468 Temp     =      2454.4813 
PotEng   =   -518242.0311 E_bond   =         0.0000 E_angle  =         0.0000 
E_dihed  =         0.0000 E_impro  =         0.0000 E_vdwl   =   -509915.4298 
E_coul   =     -8326.6013 E_long   =         0.0000 Press    =      3118.4206 
---------------- Step    75000 ----- CPU =   1184.3505 (sec) ----------------
TotEng   =   -470640.5477 KinEng   =     48498.5824 Temp     =      2507.3616 
PotEng   =   -519139.1301 E_bond   =         0.0000 E_angle  =         0.0000 
E_dihed  =         0.0000 E_impro  =         0.0000 E_vdwl   =   -510781.5397 
E_coul   =     -8357.5904 E_long   =         0.0000 Press    =      -397.1542 
---------------- Step    76000 ----- CPU =   1199.9755 (sec) ----------------
TotEng   =   -469783.0237 KinEng   =     49120.3821 Temp     =      2539.5084 
PotEng   =   -518903.4059 E_bond   =         0.0000 E_angle  =         0.0000 
E_dihed  =         0.0000 E_impro  =         0.0000 E_vdwl   =   -510602.1308 
E_coul   =     -8301.2751 E_long   =         0.0000 Press    =      4504.4681 
---------------- Step    77000 ----- CPU =   1215.7143 (sec) ----------------
TotEng   =   -469262.6151 KinEng   =     49565.2581 Temp     =      2562.5084 
PotEng   =   -518827.8732 E_bond   =         0.0000 E_angle  =         0.0000 
E_dihed  =         0.0000 E_impro  =         0.0000 E_vdwl   =   -510487.0716 
E_coul   =     -8340.8016 E_long   =         0.0000 Press    =     -2613.6688 
---------------- Step    78000 ----- CPU =   1231.6482 (sec) ----------------
TotEng   =   -469600.7335 KinEng   =     47145.6489 Temp     =      2437.4153 
PotEng   =   -516746.3824 E_bond   =         0.0000 E_angle  =         0.0000 
E_dihed  =         0.0000 E_impro  =         0.0000 E_vdwl   =   -508443.9061 
E_coul   =     -8302.4763 E_long   =         0.0000 Press    =      2464.5514 
---------------- Step    79000 ----- CPU =   1247.7105 (sec) ----------------
TotEng   =   -470373.0099 KinEng   =     47391.7778 Temp     =      2450.1401 
PotEng   =   -517764.7877 E_bond   =         0.0000 E_angle  =         0.0000 
E_dihed  =         0.0000 E_impro  =         0.0000 E_vdwl   =   -509444.7960 
E_coul   =     -8319.9917 E_long   =         0.0000 Press    =     -2576.1796 
---------------- Step    80000 ----- CPU =   1263.4555 (sec) ----------------
TotEng   =   -470728.9193 KinEng   =     47946.3685 Temp     =      2478.8123 
PotEng   =   -518675.2878 E_bond   =         0.0000 E_angle  =         0.0000 
E_dihed  =         0.0000 E_impro  =         0.0000 E_vdwl   =   -510345.7917 
E_coul   =     -8329.4961 E_long   =         0.0000 Press    =      1289.7179 
---------------- Step    81000 ----- CPU =   1279.1372 (sec) ----------------
TotEng   =   -470198.9465 KinEng   =     49072.3780 Temp     =      2537.0266 
PotEng   =   -519271.3245 E_bond   =         0.0000 E_angle  =         0.0000 
E_dihed  =         0.0000 E_impro  =         0.0000 E_vdwl   =   -510919.0621 
E_coul   =     -8352.2624 E_long   =         0.0000 Press    =      2194.0317 
---------------- Step    82000 ----- CPU =   1294.8857 (sec) ----------------
TotEng   =   -469410.3658 KinEng   =     48928.6679 Temp     =      2529.5969 
PotEng   =   -518339.0337 E_bond   =         0.0000 E_angle  =         0.0000 
E_dihed  =         0.0000 E_impro  =         0.0000 E_vdwl   =   -509979.4005 
E_coul   =     -8359.6331 E_long   =         0.0000 Press    =     -1257.5783 
---------------- Step    83000 ----- CPU =   1310.5402 (sec) ----------------
TotEng   =   -469360.6459 KinEng   =     49806.1914 Temp     =      2574.9646 
PotEng   =   -519166.8372 E_bond   =         0.0000 E_angle  =         0.0000 
E_dihed  =         0.0000 E_impro  =         0.0000 E_vdwl   =   -510820.0154 
E_coul   =     -8346.8219 E_long   =         0.0000 Press    =      1575.5109 
---------------- Step    84000 ----- CPU =   1326.2850 (sec) ----------------
TotEng   =   -470106.7664 KinEng   =     48659.2161 Temp     =      2515.6663 
PotEng   =   -518765.9825 E_bond   =         0.0000 E_angle  =         0.0000 
E_dihed  =         0.0000 E_impro  =         0.0000 E_vdwl   =   -510415.7572 
E_coul   =     -8350.2254 E_long   =         0.0000 Press    =      -746.3189 
---------------- Step    85000 ----- CPU =   1342.9909 (sec) ----------------
TotEng   =   -470698.5806 KinEng   =     46949.7498 Temp     =      2427.2874 
PotEng   =   -517648.3304 E_bond   =         0.0000 E_angle  =         0.0000 
E_dihed  =         0.0000 E_impro  =         0.0000 E_vdwl   =   -509314.9152 
E_coul   =     -8333.4152 E_long   =         0.0000 Press    =      3501.4925 
---------------- Step    86000 ----- CPU =   1359.1251 (sec) ----------------
TotEng   =   -470378.0369 KinEng   =     46946.6173 Temp     =      2427.1255 
PotEng   =   -517324.6542 E_bond   =         0.0000 E_angle  =         0.0000 
E_dihed  =         0.0000 E_impro  =         0.0000 E_vdwl   =   -508993.8544 
E_coul   =     -8330.7998 E_long   =         0.0000 Press    =     -2075.0786 
---------------- Step    87000 ----- CPU =   1375.1800 (sec) ----------------
TotEng   =   -469470.5575 KinEng   =     47679.2608 Temp     =      2465.0029 
PotEng   =   -517149.8183 E_bond   =         0.0000 E_angle  =         0.0000 
E_dihed  =         0.0000 E_impro  =         0.0000 E_vdwl   =   -508858.9431 
E_coul   =     -8290.8753 E_long   =         0.0000 Press    =      3718.0196 
---------------- Step    88000 ----- CPU =   1391.1632 (sec) ----------------
TotEng   =   -469040.6282 KinEng   =     49417.2134 Temp     =      2554.8545 
PotEng   =   -518457.8416 E_bond   =         0.0000 E_angle  =         0.0000 
E_dihed  =         0.0000 E_impro  =         0.0000 E_vdwl   =   -510130.1470 
E_coul   =     -8327.6946 E_long   =         0.0000 Press    =      -553.8796 
---------------- Step    89000 ----- CPU =   1407.4284 (sec) ----------------
TotEng   =   -469598.4273 KinEng   =     49423.1434 Temp     =      2555.1611 
PotEng   =   -519021.5708 E_bond   =         0.0000 E_angle  =         0.0000 
E_dihed  =         0.0000 E_impro  =         0.0000 E_vdwl   =   -510717.2769 
E_coul   =     -8304.2939 E_long   =         0.0000 Press    =      2068.2138 
---------------- Step    90000 ----- CPU =   1423.2227 (sec) ----------------
TotEng   =   -470439.2328 KinEng   =     48143.4533 Temp     =      2489.0015 
PotEng   =   -518582.6860 E_bond   =         0.0000 E_angle  =         0.0000 
E_dihed  =         0.0000 E_impro  =         0.0000 E_vdwl   =   -510289.8973 
E_coul   =     -8292.7887 E_long   =         0.0000 Press    =      -928.2860 
---------------- Step    91000 ----- CPU =   1439.1070 (sec) ----------------
TotEng   =   -470585.0058 KinEng   =     47417.7727 Temp     =      2451.4841 
PotEng   =   -518002.7785 E_bond   =         0.0000 E_angle  =         0.0000 
E_dihed  =         0.0000 E_impro  =         0.0000 E_vdwl   =   -509710.2175 
E_coul   =     -8292.5610 E_long   =         0.0000 Press    =      -474.5066 
---------------- Step    92000 ----- CPU =   1454.7686 (sec) ----------------
TotEng   =   -469818.0201 KinEng   =     47321.6731 Temp     =      2446.5157 
PotEng   =   -517139.6932 E_bond   =         0.0000 E_angle  =         0.0000 
E_dihed  =         0.0000 E_impro  =         0.0000 E_vdwl   =   -508928.0207 
E_coul   =     -8211.6725 E_long   =         0.0000 Press    =      2101.7939 
---------------- Step    93000 ----- CPU =   1470.8268 (sec) ----------------
TotEng   =   -469077.8649 KinEng   =     47913.5070 Temp     =      2477.1134 
PotEng   =   -516991.3719 E_bond   =         0.0000 E_angle  =         0.0000 
E_dihed  =         0.0000 E_impro  =         0.0000 E_vdwl   =   -508753.1287 
E_coul   =     -8238.2432 E_long   =         0.0000 Press    =      -800.6463 
---------------- Step    94000 ----- CPU =   1486.6308 (sec) ----------------
TotEng   =   -469143.8752 KinEng   =     48740.8232 Temp     =      2519.8854 
PotEng   =   -517884.6984 E_bond   =         0.0000 E_angle  =         0.0000 
E_dihed  =         0.0000 E_impro  =         0.0000 E_vdwl   =   -509654.6131 
E_coul   =     -8230.0852 E_long   =         0.0000 Press    =      2148.8565 
---------------- Step    95000 ----- CPU =   1502.3347 (sec) ----------------
TotEng   =   -469814.6717 KinEng   =     49563.0257 Temp     =      2562.3930 
PotEng   =   -519377.6973 E_bond   =         0.0000 E_angle  =         0.0000 
E_dihed  =         0.0000 E_impro  =         0.0000 E_vdwl   =   -511177.2835 
E_coul   =     -8200.4138 E_long   =         0.0000 Press    =      -534.1013 
---------------- Step    96000 ----- CPU =   1518.2861 (sec) ----------------
TotEng   =   -470317.1326 KinEng   =     49137.5005 Temp     =      2540.3935 
PotEng   =   -519454.6332 E_bond   =         0.0000 E_angle  =         0.0000 
E_dihed  =         0.0000 E_impro  =         0.0000 E_vdwl   =   -511330.0640 
E_coul   =     -8124.5691 E_long   =         0.0000 Press    =      3405.9467 
---------------- Step    97000 ----- CPU =   1534.1649 (sec) ----------------
TotEng   =   -470065.3177 KinEng   =     48359.3967 Temp     =      2500.1657 
PotEng   =   -518424.7144 E_bond   =         0.0000 E_angle  =         0.0000 
E_dihed  =         0.0000 E_impro  =         0.0000 E_vdwl   =   -510232.0083 
E_coul   =     -8192.7061 E_long   =         0.0000 Press    =      1800.4835 
---------------- Step    98000 ----- CPU =   1550.3474 (sec) ----------------
TotEng   =   -469319.7416 KinEng   =     48721.6917 Temp     =      2518.8963 
PotEng   =   -518041.4333 E_bond   =         0.0000 E_angle  =         0.0000 
E_dihed  =         0.0000 E_impro  =         0.0000 E_vdwl   =   -509795.4880 
E_coul   =     -8245.9453 E_long   =         0.0000 Press    =       195.0948 
---------------- Step    99000 ----- CPU =   1566.2570 (sec) ----------------
TotEng   =   -469058.4865 KinEng   =     48522.8536 Temp     =      2508.6164 
PotEng   =   -517581.3401 E_bond   =         0.0000 E_angle  =         0.0000 
E_dihed  =         0.0000 E_impro  =         0.0000 E_vdwl   =   -509307.8267 
E_coul   =     -8273.5134 E_long   =         0.0000 Press    =        42.2504 
---------------- Step   100000 ----- CPU =   1582.3696 (sec) ----------------
TotEng   =   -469640.0713 KinEng   =     48138.6077 Temp     =      2488.7510 
PotEng   =   -517778.6790 E_bond   =         0.0000 E_angle  =         0.0000 
E_dihed  =         0.0000 E_impro  =         0.0000 E_vdwl   =   -509487.0612 
E_coul   =     -8291.6179 E_long   =         0.0000 Press    =     -1064.7607 
---------------- Step   101000 ----- CPU =   1598.4916 (sec) ----------------
TotEng   =   -470306.2075 KinEng   =     47155.7389 Temp     =      2437.9370 
PotEng   =   -517461.9464 E_bond   =         0.0000 E_angle  =         0.0000 
E_dihed  =         0.0000 E_impro  =         0.0000 E_vdwl   =   -509171.4494 
E_coul   =     -8290.4970 E_long   =         0.0000 Press    =      2100.8839 
---------------- Step   102000 ----- CPU =   1614.9481 (sec) ----------------
TotEng   =   -470307.5835 KinEng   =     47813.6817 Temp     =      2471.9524 
PotEng   =   -518121.2652 E_bond   =         0.0000 E_angle  =         0.0000 
E_dihed  =         0.0000 E_impro  =         0.0000 E_vdwl   =   -509830.0855 
E_coul   =     -8291.1797 E_long   =         0.0000 Press    =      -778.4600 
---------------- Step   103000 ----- CPU =   1630.9968 (sec) ----------------
TotEng   =   -469678.0020 KinEng   =     48739.4035 Temp     =      2519.8120 
PotEng   =   -518417.4055 E_bond   =         0.0000 E_angle  =         0.0000 
E_dihed  =         0.0000 E_impro  =         0.0000 E_vdwl   =   -510168.3109 
E_coul   =     -8249.0947 E_long   =         0.0000 Press    =      2699.1395 
---------------- Step   104000 ----- CPU =   1647.5491 (sec) ----------------
TotEng   =   -469156.5688 KinEng   =     49182.5592 Temp     =      2542.7230 
PotEng   =   -518339.1280 E_bond   =         0.0000 E_angle  =         0.0000 
E_dihed  =         0.0000 E_impro  =         0.0000 E_vdwl   =   -510090.5664 
E_coul   =     -8248.5616 E_long   =         0.0000 Press    =      1893.2476 
---------------- Step   105000 ----- CPU =   1663.5251 (sec) ----------------
TotEng   =   -469262.1733 KinEng   =     49022.1281 Temp     =      2534.4287 
PotEng   =   -518284.3014 E_bond   =         0.0000 E_angle  =         0.0000 
E_dihed  =         0.0000 E_impro  =         0.0000 E_vdwl   =   -510110.8036 
E_coul   =     -8173.4977 E_long   =         0.0000 Press    =     -1025.7042 
---------------- Step   106000 ----- CPU =   1679.5443 (sec) ----------------
TotEng   =   -469826.6970 KinEng   =     49000.0976 Temp     =      2533.2898 
PotEng   =   -518826.7945 E_bond   =         0.0000 E_angle  =         0.0000 
E_dihed  =         0.0000 E_impro  =         0.0000 E_vdwl   =   -510658.1572 
E_coul   =     -8168.6373 E_long   =         0.0000 Press    =      3344.7366 
---------------- Step   107000 ----- CPU =   1695.4908 (sec) ----------------
TotEng   =   -470170.1129 KinEng   =     48609.2177 Temp     =      2513.0814 
PotEng   =   -518779.3306 E_bond   =         0.0000 E_angle  =         0.0000 
E_dihed  =         0.0000 E_impro  =         0.0000 E_vdwl   =   -510614.1879 
E_coul   =     -8165.1427 E_long   =         0.0000 Press    =     -2115.6453 
---------------- Step   108000 ----- CPU =   1711.4350 (sec) ----------------
TotEng   =   -469916.9952 KinEng   =     47477.4340 Temp     =      2454.5685 
PotEng   =   -517394.4292 E_bond   =         0.0000 E_angle  =         0.0000 
E_dihed  =         0.0000 E_impro  =         0.0000 E_vdwl   =   -509244.5119 
E_coul   =     -8149.9173 E_long   =         0.0000 Press    =      1365.0077 
---------------- Step   109000 ----- CPU =   1728.3107 (sec) ----------------
TotEng   =   -469357.4901 KinEng   =     47709.5219 Temp     =      2466.5674 
PotEng   =   -517067.0120 E_bond   =         0.0000 E_angle  =         0.0000 
E_dihed  =         0.0000 E_impro  =         0.0000 E_vdwl   =   -508856.9500 
E_coul   =     -8210.0620 E_long   =         0.0000 Press    =     -3042.0255 
---------------- Step   110000 ----- CPU =   1744.3451 (sec) ----------------
TotEng   =   -469113.3077 KinEng   =     48567.5589 Temp     =      2510.9277 
PotEng   =   -517680.8665 E_bond   =         0.0000 E_angle  =         0.0000 
E_dihed  =         0.0000 E_impro  =         0.0000 E_vdwl   =   -509501.1115 
E_coul   =     -8179.7551 E_long   =         0.0000 Press    =      2702.7276 
---------------- Step   111000 ----- CPU =   1760.2758 (sec) ----------------
TotEng   =   -469564.4835 KinEng   =     47995.0321 Temp     =      2481.3282 
PotEng   =   -517559.5156 E_bond   =         0.0000 E_angle  =         0.0000 
E_dihed  =         0.0000 E_impro  =         0.0000 E_vdwl   =   -509310.1089 
E_coul   =     -8249.4067 E_long   =         0.0000 Press    =     -1378.4161 
---------------- Step   112000 ----- CPU =   1776.8674 (sec) ----------------
TotEng   =   -470180.9171 KinEng   =     48594.9790 Temp     =      2512.3453 
PotEng   =   -518775.8961 E_bond   =         0.0000 E_angle  =         0.0000 
E_dihed  =         0.0000 E_impro  =         0.0000 E_vdwl   =   -510559.1446 
E_coul   =     -8216.7515 E_long   =         0.0000 Press    =      2902.9256 
---------------- Step   113000 ----- CPU =   1793.1494 (sec) ----------------
TotEng   =   -470256.6507 KinEng   =     47955.1555 Temp     =      2479.2666 
PotEng   =   -518211.8061 E_bond   =         0.0000 E_angle  =         0.0000 
E_dihed  =         0.0000 E_impro  =         0.0000 E_vdwl   =   -509993.3565 
E_coul   =     -8218.4497 E_long   =         0.0000 Press    =      -806.7690 
---------------- Step   114000 ----- CPU =   1808.7484 (sec) ----------------
TotEng   =   -469722.8544 KinEng   =     49198.8923 Temp     =      2543.5674 
PotEng   =   -518921.7466 E_bond   =         0.0000 E_angle  =         0.0000 
E_dihed  =         0.0000 E_impro  =         0.0000 E_vdwl   =   -510738.0763 
E_coul   =     -8183.6704 E_long   =         0.0000 Press    =      1822.6027 
---------------- Step   115000 ----- CPU =   1824.6753 (sec) ----------------
TotEng   =   -469192.6739 KinEng   =     49807.7161 Temp     =      2575.0434 
PotEng   =   -519000.3900 E_bond   =         0.0000 E_angle  =         0.0000 
E_dihed  =         0.0000 E_impro  =         0.0000 E_vdwl   =   -510830.0345 
E_coul   =     -8170.3555 E_long   =         0.0000 Press    =      2008.1359 
---------------- Step   116000 ----- CPU =   1840.4566 (sec) ----------------
TotEng   =   -469266.5604 KinEng   =     48563.6566 Temp     =      2510.7259 
PotEng   =   -517830.2170 E_bond   =         0.0000 E_angle  =         0.0000 
E_dihed  =         0.0000 E_impro  =         0.0000 E_vdwl   =   -509670.2354 
E_coul   =     -8159.9816 E_long   =         0.0000 Press    =     -2569.7778 
---------------- Step   117000 ----- CPU =   1856.6874 (sec) ----------------
TotEng   =   -469783.4826 KinEng   =     47591.7395 Temp     =      2460.4781 
PotEng   =   -517375.2221 E_bond   =         0.0000 E_angle  =         0.0000 
E_dihed  =         0.0000 E_impro  =         0.0000 E_vdwl   =   -509215.9884 
E_coul   =     -8159.2337 E_long   =         0.0000 Press    =      2434.7675 
---------------- Step   118000 ----- CPU =   1872.6805 (sec) ----------------
TotEng   =   -470097.6383 KinEng   =     47629.0214 Temp     =      2462.4056 
PotEng   =   -517726.6596 E_bond   =         0.0000 E_angle  =         0.0000 
E_dihed  =         0.0000 E_impro  =         0.0000 E_vdwl   =   -509531.1170 
E_coul   =     -8195.5426 E_long   =         0.0000 Press    =      -413.4948 
---------------- Step   119000 ----- CPU =   1888.5815 (sec) ----------------
TotEng   =   -469870.4793 KinEng   =     47325.5708 Temp     =      2446.7173 
PotEng   =   -517196.0501 E_bond   =         0.0000 E_angle  =         0.0000 
E_dihed  =         0.0000 E_impro  =         0.0000 E_vdwl   =   -509008.7509 
E_coul   =     -8187.2991 E_long   =         0.0000 Press    =      3175.9867 
---------------- Step   120000 ----- CPU =   1904.2990 (sec) ----------------
TotEng   =   -469332.4849 KinEng   =     48452.2664 Temp     =      2504.9671 
PotEng   =   -517784.7512 E_bond   =         0.0000 E_angle  =         0.0000 
E_dihed  =         0.0000 E_impro  =         0.0000 E_vdwl   =   -509613.8323 
E_coul   =     -8170.9190 E_long   =         0.0000 Press    =     -1515.2230 
---------------- Step   121000 ----- CPU =   1920.0223 (sec) ----------------
TotEng   =   -469033.0926 KinEng   =     48934.4891 Temp     =      2529.8978 
PotEng   =   -517967.5817 E_bond   =         0.0000 E_angle  =         0.0000 
E_dihed  =         0.0000 E_impro  =         0.0000 E_vdwl   =   -509797.6833 
E_coul   =     -8169.8984 E_long   =         0.0000 Press    =      1278.3456 
---------------- Step   122000 ----- CPU =   1935.7670 (sec) ----------------
TotEng   =   -469365.0392 KinEng   =     49494.0514 Temp     =      2558.8270 
PotEng   =   -518859.0906 E_bond   =         0.0000 E_angle  =         0.0000 
E_dihed  =         0.0000 E_impro  =         0.0000 E_vdwl   =   -510669.6351 
E_coul   =     -8189.4555 E_long   =         0.0000 Press    =      3550.4653 
---------------- Step   123000 ----- CPU =   1952.0099 (sec) ----------------
TotEng   =   -470012.1550 KinEng   =     48569.0524 Temp     =      2511.0049 
PotEng   =   -518581.2074 E_bond   =         0.0000 E_angle  =         0.0000 
E_dihed  =         0.0000 E_impro  =         0.0000 E_vdwl   =   -510371.2925 
E_coul   =     -8209.9148 E_long   =         0.0000 Press    =       881.9658 
---------------- Step   124000 ----- CPU =   1967.7774 (sec) ----------------
TotEng   =   -470189.4686 KinEng   =     48290.5934 Temp     =      2496.6086 
PotEng   =   -518480.0619 E_bond   =         0.0000 E_angle  =         0.0000 
E_dihed  =         0.0000 E_impro  =         0.0000 E_vdwl   =   -510241.9410 
E_coul   =     -8238.1209 E_long   =         0.0000 Press    =      2340.4264 
---------------- Step   125000 ----- CPU =   1983.6755 (sec) ----------------
TotEng   =   -469739.4086 KinEng   =     48074.9916 Temp     =      2485.4621 
PotEng   =   -517814.4002 E_bond   =         0.0000 E_angle  =         0.0000 
E_dihed  =         0.0000 E_impro  =         0.0000 E_vdwl   =   -509599.1243 
E_coul   =     -8215.2758 E_long   =         0.0000 Press    =     -1538.7844 
---------------- Step   126000 ----- CPU =   1999.4971 (sec) ----------------
TotEng   =   -469164.7978 KinEng   =     48285.3397 Temp     =      2496.3370 
PotEng   =   -517450.1375 E_bond   =         0.0000 E_angle  =         0.0000 
E_dihed  =         0.0000 E_impro  =         0.0000 E_vdwl   =   -509298.3404 
E_coul   =     -8151.7971 E_long   =         0.0000 Press    =      2740.1068 
---------------- Step   127000 ----- CPU =   2015.6985 (sec) ----------------
TotEng   =   -469132.2552 KinEng   =     48973.9990 Temp     =      2531.9405 
PotEng   =   -518106.2542 E_bond   =         0.0000 E_angle  =         0.0000 
E_dihed  =         0.0000 E_impro  =         0.0000 E_vdwl   =   -509988.4747 
E_coul   =     -8117.7794 E_long   =         0.0000 Press    =     -1258.5160 
---------------- Step   128000 ----- CPU =   2031.8025 (sec) ----------------
TotEng   =   -469663.4625 KinEng   =     48258.2443 Temp     =      2494.9362 
PotEng   =   -517921.7068 E_bond   =         0.0000 E_angle  =         0.0000 
E_dihed  =         0.0000 E_impro  =         0.0000 E_vdwl   =   -509803.0477 
E_coul   =     -8118.6591 E_long   =         0.0000 Press    =      2375.0443 
---------------- Step   129000 ----- CPU =   2047.7423 (sec) ----------------
TotEng   =   -470090.2666 KinEng   =     47929.6462 Temp     =      2477.9478 
PotEng   =   -518019.9128 E_bond   =         0.0000 E_angle  =         0.0000 
E_dihed  =         0.0000 E_impro  =         0.0000 E_vdwl   =   -509881.8534 
E_coul   =     -8138.0593 E_long   =         0.0000 Press    =      2222.4293 
---------------- Step   130000 ----- CPU =   2063.7610 (sec) ----------------
TotEng   =   -469781.9437 KinEng   =     49292.3256 Temp     =      2548.3979 
PotEng   =   -519074.2693 E_bond   =         0.0000 E_angle  =         0.0000 
E_dihed  =         0.0000 E_impro  =         0.0000 E_vdwl   =   -510902.1149 
E_coul   =     -8172.1543 E_long   =         0.0000 Press    =     -1696.5445 
---------------- Step   131000 ----- CPU =   2080.5180 (sec) ----------------
TotEng   =   -468962.5046 KinEng   =     48839.6906 Temp     =      2524.9968 
PotEng   =   -517802.1952 E_bond   =         0.0000 E_angle  =         0.0000 
E_dihed  =         0.0000 E_impro  =         0.0000 E_vdwl   =   -509647.9051 
E_coul   =     -8154.2901 E_long   =         0.0000 Press    =      2275.2500 
---------------- Step   132000 ----- CPU =   2096.6063 (sec) ----------------
TotEng   =   -468786.3685 KinEng   =     48845.6189 Temp     =      2525.3033 
PotEng   =   -517631.9874 E_bond   =         0.0000 E_angle  =         0.0000 
E_dihed  =         0.0000 E_impro  =         0.0000 E_vdwl   =   -509527.1702 
E_coul   =     -8104.8172 E_long   =         0.0000 Press    =       -36.9359 
---------------- Step   133000 ----- CPU =   2112.4176 (sec) ----------------
TotEng   =   -469897.7346 KinEng   =     48761.0944 Temp     =      2520.9334 
PotEng   =   -518658.8290 E_bond   =         0.0000 E_angle  =         0.0000 
E_dihed  =         0.0000 E_impro  =         0.0000 E_vdwl   =   -510567.8146 
E_coul   =     -8091.0144 E_long   =         0.0000 Press    =      3612.4470 
---------------- Step   134000 ----- CPU =   2128.2453 (sec) ----------------
TotEng   =   -470461.7776 KinEng   =     48463.2502 Temp     =      2505.5349 
PotEng   =   -518925.0277 E_bond   =         0.0000 E_angle  =         0.0000 
E_dihed  =         0.0000 E_impro  =         0.0000 E_vdwl   =   -510826.5199 
E_coul   =     -8098.5078 E_long   =         0.0000 Press    =      -169.2892 
---------------- Step   135000 ----- CPU =   2144.4008 (sec) ----------------
TotEng   =   -469920.2238 KinEng   =     48243.3886 Temp     =      2494.1681 
PotEng   =   -518163.6124 E_bond   =         0.0000 E_angle  =         0.0000 
E_dihed  =         0.0000 E_impro  =         0.0000 E_vdwl   =   -510069.4069 
E_coul   =     -8094.2055 E_long   =         0.0000 Press    =      1820.4498 
---------------- Step   136000 ----- CPU =   2160.5279 (sec) ----------------
TotEng   =   -469320.5897 KinEng   =     48341.8476 Temp     =      2499.2584 
PotEng   =   -517662.4373 E_bond   =         0.0000 E_angle  =         0.0000 
E_dihed  =         0.0000 E_impro  =         0.0000 E_vdwl   =   -509588.4117 
E_coul   =     -8074.0257 E_long   =         0.0000 Press    =      1037.1593 
---------------- Step   137000 ----- CPU =   2176.4352 (sec) ----------------
TotEng   =   -469094.0875 KinEng   =     47938.2635 Temp     =      2478.3933 
PotEng   =   -517032.3510 E_bond   =         0.0000 E_angle  =         0.0000 
E_dihed  =         0.0000 E_impro  =         0.0000 E_vdwl   =   -508942.7674 
E_coul   =     -8089.5836 E_long   =         0.0000 Press    =      3663.0482 
---------------- Step   138000 ----- CPU =   2192.5652 (sec) ----------------
TotEng   =   -469308.8839 KinEng   =     48266.7400 Temp     =      2495.3754 
PotEng   =   -517575.6239 E_bond   =         0.0000 E_angle  =         0.0000 
E_dihed  =         0.0000 E_impro  =         0.0000 E_vdwl   =   -509489.1145 
E_coul   =     -8086.5094 E_long   =         0.0000 Press    =       627.1738 
---------------- Step   139000 ----- CPU =   2208.3256 (sec) ----------------
TotEng   =   -470636.5105 KinEng   =     47824.5414 Temp     =      2472.5139 
PotEng   =   -518461.0519 E_bond   =         0.0000 E_angle  =         0.0000 
E_dihed  =         0.0000 E_impro  =         0.0000 E_vdwl   =   -510284.2012 
E_coul   =     -8176.8507 E_long   =         0.0000 Press    =      3309.1990 
---------------- Step   140000 ----- CPU =   2224.7013 (sec) ----------------
TotEng   =   -470622.9495 KinEng   =     48520.2616 Temp     =      2508.4824 
PotEng   =   -519143.2111 E_bond   =         0.0000 E_angle  =         0.0000 
E_dihed  =         0.0000 E_impro  =         0.0000 E_vdwl   =   -510967.9571 
E_coul   =     -8175.2540 E_long   =         0.0000 Press    =      -418.9592 
---------------- Step   141000 ----- CPU =   2240.4277 (sec) ----------------
TotEng   =   -469613.9911 KinEng   =     48138.8199 Temp     =      2488.7620 
PotEng   =   -517752.8109 E_bond   =         0.0000 E_angle  =         0.0000 
E_dihed  =         0.0000 E_impro  =         0.0000 E_vdwl   =   -509568.8120 
E_coul   =     -8183.9990 E_long   =         0.0000 Press    =       143.8209 
---------------- Step   142000 ----- CPU =   2256.8024 (sec) ----------------
TotEng   =   -469223.6625 KinEng   =     48864.6795 Temp     =      2526.2887 
PotEng   =   -518088.3420 E_bond   =         0.0000 E_angle  =         0.0000 
E_dihed  =         0.0000 E_impro  =         0.0000 E_vdwl   =   -509918.6260 
E_coul   =     -8169.7160 E_long   =         0.0000 Press    =        46.3599 
---------------- Step   143000 ----- CPU =   2272.8264 (sec) ----------------
TotEng   =   -469287.4815 KinEng   =     48666.7429 Temp     =      2516.0554 
PotEng   =   -517954.2243 E_bond   =         0.0000 E_angle  =         0.0000 
E_dihed  =         0.0000 E_impro  =         0.0000 E_vdwl   =   -509781.1150 
E_coul   =     -8173.1094 E_long   =         0.0000 Press    =       -51.3284 
---------------- Step   144000 ----- CPU =   2288.4922 (sec) ----------------
TotEng   =   -469944.0706 KinEng   =     47686.9917 Temp     =      2465.4026 
PotEng   =   -517631.0623 E_bond   =         0.0000 E_angle  =         0.0000 
E_dihed  =         0.0000 E_impro  =         0.0000 E_vdwl   =   -509474.4221 
E_coul   =     -8156.6401 E_long   =         0.0000 Press    =       701.1682 
---------------- Step   145000 ----- CPU =   2304.4050 (sec) ----------------
TotEng   =   -470879.5989 KinEng   =     46619.1637 Temp     =      2410.1962 
PotEng   =   -517498.7626 E_bond   =         0.0000 E_angle  =         0.0000 
E_dihed  =         0.0000 E_impro  =         0.0000 E_vdwl   =   -509394.4753 
E_coul   =     -8104.2873 E_long   =         0.0000 Press    =      -865.4854 
---------------- Step   146000 ----- CPU =   2320.0081 (sec) ----------------
TotEng   =   -470344.0768 KinEng   =     47150.3606 Temp     =      2437.6589 
PotEng   =   -517494.4374 E_bond   =         0.0000 E_angle  =         0.0000 
E_dihed  =         0.0000 E_impro  =         0.0000 E_vdwl   =   -509391.0623 
E_coul   =     -8103.3751 E_long   =         0.0000 Press    =       418.0630 
---------------- Step   147000 ----- CPU =   2335.6961 (sec) ----------------
TotEng   =   -469097.6667 KinEng   =     48871.1678 Temp     =      2526.6241 
PotEng   =   -517968.8345 E_bond   =         0.0000 E_angle  =         0.0000 
E_dihed  =         0.0000 E_impro  =         0.0000 E_vdwl   =   -509878.1700 
E_coul   =     -8090.6644 E_long   =         0.0000 Press    =      -779.9821 
---------------- Step   148000 ----- CPU =   2351.0403 (sec) ----------------
TotEng   =   -469058.9965 KinEng   =     48505.2963 Temp     =      2507.7087 
PotEng   =   -517564.2927 E_bond   =         0.0000 E_angle  =         0.0000 
E_dihed  =         0.0000 E_impro  =         0.0000 E_vdwl   =   -509511.1612 
E_coul   =     -8053.1316 E_long   =         0.0000 Press    =      1821.0485 
---------------- Step   149000 ----- CPU =   2366.0940 (sec) ----------------
TotEng   =   -469510.0414 KinEng   =     48147.5732 Temp     =      2489.2145 
PotEng   =   -517657.6146 E_bond   =         0.0000 E_angle  =         0.0000 
E_dihed  =         0.0000 E_impro  =         0.0000 E_vdwl   =   -509610.6625 
E_coul   =     -8046.9521 E_long   =         0.0000 Press    =      1332.2040 
---------------- Step   150000 ----- CPU =   2381.0433 (sec) ----------------
TotEng   =   -470046.3741 KinEng   =     48259.5544 Temp     =      2495.0039 
PotEng   =   -518305.9285 E_bond   =         0.0000 E_angle  =         0.0000 
E_dihed  =         0.0000 E_impro  =         0.0000 E_vdwl   =   -510287.5646 
E_coul   =     -8018.3639 E_long   =         0.0000 Press    =       -63.4869 
---------------- Step   151000 ----- CPU =   2396.1438 (sec) ----------------
TotEng   =   -470012.9379 KinEng   =     48285.3188 Temp     =      2496.3359 
PotEng   =   -518298.2566 E_bond   =         0.0000 E_angle  =         0.0000 
E_dihed  =         0.0000 E_impro  =         0.0000 E_vdwl   =   -510269.2858 
E_coul   =     -8028.9709 E_long   =         0.0000 Press    =       891.6940 
---------------- Step   152000 ----- CPU =   2411.1533 (sec) ----------------
TotEng   =   -468873.6047 KinEng   =     48320.3397 Temp     =      2498.1465 
PotEng   =   -517193.9444 E_bond   =         0.0000 E_angle  =         0.0000 
E_dihed  =         0.0000 E_impro  =         0.0000 E_vdwl   =   -509146.1554 
E_coul   =     -8047.7890 E_long   =         0.0000 Press    =      1183.1373 
---------------- Step   153000 ----- CPU =   2426.3952 (sec) ----------------
TotEng   =   -468481.2315 KinEng   =     48895.9533 Temp     =      2527.9055 
PotEng   =   -517377.1848 E_bond   =         0.0000 E_angle  =         0.0000 
E_dihed  =         0.0000 E_impro  =         0.0000 E_vdwl   =   -509288.1687 
E_coul   =     -8089.0160 E_long   =         0.0000 Press    =       278.0516 
---------------- Step   154000 ----- CPU =   2441.3316 (sec) ----------------
TotEng   =   -469167.7589 KinEng   =     48461.8973 Temp     =      2505.4650 
PotEng   =   -517629.6562 E_bond   =         0.0000 E_angle  =         0.0000 
E_dihed  =         0.0000 E_impro  =         0.0000 E_vdwl   =   -509507.5051 
E_coul   =     -8122.1511 E_long   =         0.0000 Press    =       332.9253 
---------------- Step   155000 ----- CPU =   2457.0246 (sec) ----------------
TotEng   =   -469869.4670 KinEng   =     48441.5876 Temp     =      2504.4150 
PotEng   =   -518311.0547 E_bond   =         0.0000 E_angle  =         0.0000 
E_dihed  =         0.0000 E_impro  =         0.0000 E_vdwl   =   -510191.1990 
E_coul   =     -8119.8556 E_long   =         0.0000 Press    =       963.1370 
---------------- Step   156000 ----- CPU =   2471.8081 (sec) ----------------
TotEng   =   -469824.7162 KinEng   =     49476.2685 Temp     =      2557.9077 
PotEng   =   -519300.9848 E_bond   =         0.0000 E_angle  =         0.0000 
E_dihed  =         0.0000 E_impro  =         0.0000 E_vdwl   =   -511238.8881 
E_coul   =     -8062.0967 E_long   =         0.0000 Press    =      1355.7722 
---------------- Step   157000 ----- CPU =   2486.8472 (sec) ----------------
TotEng   =   -469508.3911 KinEng   =     49100.8781 Temp     =      2538.5001 
PotEng   =   -518609.2692 E_bond   =         0.0000 E_angle  =         0.0000 
E_dihed  =         0.0000 E_impro  =         0.0000 E_vdwl   =   -510529.9208 
E_coul   =     -8079.3484 E_long   =         0.0000 Press    =      -335.7331 
---------------- Step   158000 ----- CPU =   2501.7293 (sec) ----------------
TotEng   =   -469070.9895 KinEng   =     48478.4091 Temp     =      2506.3186 
PotEng   =   -517549.3986 E_bond   =         0.0000 E_angle  =         0.0000 
E_dihed  =         0.0000 E_impro  =         0.0000 E_vdwl   =   -509472.3116 
E_coul   =     -8077.0870 E_long   =         0.0000 Press    =      1623.7938 
---------------- Step   159000 ----- CPU =   2516.7456 (sec) ----------------
TotEng   =   -468803.7957 KinEng   =     48540.2133 Temp     =      2509.5139 
PotEng   =   -517344.0089 E_bond   =         0.0000 E_angle  =         0.0000 
E_dihed  =         0.0000 E_impro  =         0.0000 E_vdwl   =   -509213.4493 
E_coul   =     -8130.5596 E_long   =         0.0000 Press    =      1196.7932 
---------------- Step   160000 ----- CPU =   2531.6576 (sec) ----------------
TotEng   =   -469228.5587 KinEng   =     48499.5162 Temp     =      2507.4099 
PotEng   =   -517728.0750 E_bond   =         0.0000 E_angle  =         0.0000 
E_dihed  =         0.0000 E_impro  =         0.0000 E_vdwl   =   -509673.5718 
E_coul   =     -8054.5032 E_long   =         0.0000 Press    =      -387.1223 
---------------- Step   161000 ----- CPU =   2547.0951 (sec) ----------------
TotEng   =   -470053.0093 KinEng   =     47829.5196 Temp     =      2472.7713 
PotEng   =   -517882.5289 E_bond   =         0.0000 E_angle  =         0.0000 
E_dihed  =         0.0000 E_impro  =         0.0000 E_vdwl   =   -509905.0376 
E_coul   =     -7977.4912 E_long   =         0.0000 Press    =      1746.8458 
---------------- Step   162000 ----- CPU =   2561.9060 (sec) ----------------
TotEng   =   -470005.5012 KinEng   =     49298.9273 Temp     =      2548.7392 
PotEng   =   -519304.4285 E_bond   =         0.0000 E_angle  =         0.0000 
E_dihed  =         0.0000 E_impro  =         0.0000 E_vdwl   =   -511376.3485 
E_coul   =     -7928.0800 E_long   =         0.0000 Press    =       321.0564 
---------------- Step   163000 ----- CPU =   2576.8460 (sec) ----------------
TotEng   =   -468975.1551 KinEng   =     48624.0018 Temp     =      2513.8457 
PotEng   =   -517599.1570 E_bond   =         0.0000 E_angle  =         0.0000 
E_dihed  =         0.0000 E_impro  =         0.0000 E_vdwl   =   -509676.3825 
E_coul   =     -7922.7745 E_long   =         0.0000 Press    =      2214.4068 
---------------- Step   164000 ----- CPU =   2591.5819 (sec) ----------------
TotEng   =   -468635.7202 KinEng   =     49261.7536 Temp     =      2546.8173 
PotEng   =   -517897.4738 E_bond   =         0.0000 E_angle  =         0.0000 
E_dihed  =         0.0000 E_impro  =         0.0000 E_vdwl   =   -509898.3108 
E_coul   =     -7999.1630 E_long   =         0.0000 Press    =      -328.9747 
---------------- Step   165000 ----- CPU =   2606.4756 (sec) ----------------
TotEng   =   -469035.7894 KinEng   =     48304.9623 Temp     =      2497.3515 
PotEng   =   -517340.7517 E_bond   =         0.0000 E_angle  =         0.0000 
E_dihed  =         0.0000 E_impro  =         0.0000 E_vdwl   =   -509374.7382 
E_coul   =     -7966.0134 E_long   =         0.0000 Press    =        11.4177 
---------------- Step   166000 ----- CPU =   2621.3963 (sec) ----------------
TotEng   =   -469382.0049 KinEng   =     47886.0044 Temp     =      2475.6915 
PotEng   =   -517268.0093 E_bond   =         0.0000 E_angle  =         0.0000 
E_dihed  =         0.0000 E_impro  =         0.0000 E_vdwl   =   -509282.6688 
E_coul   =     -7985.3405 E_long   =         0.0000 Press    =      2771.7338 
---------------- Step   167000 ----- CPU =   2636.4739 (sec) ----------------
TotEng   =   -469584.3850 KinEng   =     48551.6560 Temp     =      2510.1055 
PotEng   =   -518136.0410 E_bond   =         0.0000 E_angle  =         0.0000 
E_dihed  =         0.0000 E_impro  =         0.0000 E_vdwl   =   -510125.6012 
E_coul   =     -8010.4398 E_long   =         0.0000 Press    =     -1319.8033 
---------------- Step   168000 ----- CPU =   2651.5047 (sec) ----------------
TotEng   =   -469647.3231 KinEng   =     48100.7713 Temp     =      2486.7949 
PotEng   =   -517748.0944 E_bond   =         0.0000 E_angle  =         0.0000 
E_dihed  =         0.0000 E_impro  =         0.0000 E_vdwl   =   -509798.3089 
E_coul   =     -7949.7855 E_long   =         0.0000 Press    =      2163.3640 
---------------- Step   169000 ----- CPU =   2666.6265 (sec) ----------------
TotEng   =   -469026.1835 KinEng   =     48284.0051 Temp     =      2496.2680 
PotEng   =   -517310.1886 E_bond   =         0.0000 E_angle  =         0.0000 
E_dihed  =         0.0000 E_impro  =         0.0000 E_vdwl   =   -509376.0850 
E_coul   =     -7934.1036 E_long   =         0.0000 Press    =        37.6128 
---------------- Step   170000 ----- CPU =   2681.3423 (sec) ----------------
TotEng   =   -468094.3562 KinEng   =     49312.1623 Temp     =      2549.4234 
PotEng   =   -517406.5185 E_bond   =         0.0000 E_angle  =         0.0000 
E_dihed  =         0.0000 E_impro  =         0.0000 E_vdwl   =   -509506.1871 
E_coul   =     -7900.3314 E_long   =         0.0000 Press    =      1176.3412 
---------------- Step   171000 ----- CPU =   2696.3927 (sec) ----------------
TotEng   =   -468666.9851 KinEng   =     47912.8602 Temp     =      2477.0799 
PotEng   =   -516579.8452 E_bond   =         0.0000 E_angle  =         0.0000 
E_dihed  =         0.0000 E_impro  =         0.0000 E_vdwl   =   -508710.8560 
E_coul   =     -7868.9892 E_long   =         0.0000 Press    =     -1361.3770 
---------------- Step   172000 ----- CPU =   2711.3472 (sec) ----------------
TotEng   =   -469568.5484 KinEng   =     47857.2851 Temp     =      2474.2067 
PotEng   =   -517425.8335 E_bond   =         0.0000 E_angle  =         0.0000 
E_dihed  =         0.0000 E_impro  =         0.0000 E_vdwl   =   -509563.6483 
E_coul   =     -7862.1852 E_long   =         0.0000 Press    =      2410.8196 
---------------- Step   173000 ----- CPU =   2726.2923 (sec) ----------------
TotEng   =   -469661.5254 KinEng   =     47536.9191 Temp     =      2457.6439 
PotEng   =   -517198.4445 E_bond   =         0.0000 E_angle  =         0.0000 
E_dihed  =         0.0000 E_impro  =         0.0000 E_vdwl   =   -509285.7254 
E_coul   =     -7912.7191 E_long   =         0.0000 Press    =      1168.0918 
---------------- Step   174000 ----- CPU =   2741.2054 (sec) ----------------
TotEng   =   -469397.7353 KinEng   =     48373.5968 Temp     =      2500.8999 
PotEng   =   -517771.3321 E_bond   =         0.0000 E_angle  =         0.0000 
E_dihed  =         0.0000 E_impro  =         0.0000 E_vdwl   =   -509829.9056 
E_coul   =     -7941.4265 E_long   =         0.0000 Press    =       928.9387 
---------------- Step   175000 ----- CPU =   2756.8701 (sec) ----------------
TotEng   =   -468830.3579 KinEng   =     48889.3506 Temp     =      2527.5642 
PotEng   =   -517719.7085 E_bond   =         0.0000 E_angle  =         0.0000 
E_dihed  =         0.0000 E_impro  =         0.0000 E_vdwl   =   -509725.6271 
E_coul   =     -7994.0813 E_long   =         0.0000 Press    =      -671.9501 
---------------- Step   176000 ----- CPU =   2771.8776 (sec) ----------------
TotEng   =   -467769.6014 KinEng   =     50005.4395 Temp     =      2585.2656 
PotEng   =   -517775.0409 E_bond   =         0.0000 E_angle  =         0.0000 
E_dihed  =         0.0000 E_impro  =         0.0000 E_vdwl   =   -509803.3119 
E_coul   =     -7971.7290 E_long   =         0.0000 Press    =      2351.0770 
---------------- Step   177000 ----- CPU =   2787.0166 (sec) ----------------
TotEng   =   -468342.1732 KinEng   =     49085.6343 Temp     =      2537.7120 
PotEng   =   -517427.8075 E_bond   =         0.0000 E_angle  =         0.0000 
E_dihed  =         0.0000 E_impro  =         0.0000 E_vdwl   =   -509516.8064 
E_coul   =     -7911.0011 E_long   =         0.0000 Press    =      2120.3464 
---------------- Step   178000 ----- CPU =   2801.7729 (sec) ----------------
TotEng   =   -469405.7312 KinEng   =     48766.3924 Temp     =      2521.2073 
PotEng   =   -518172.1236 E_bond   =         0.0000 E_angle  =         0.0000 
E_dihed  =         0.0000 E_impro  =         0.0000 E_vdwl   =   -510309.2706 
E_coul   =     -7862.8530 E_long   =         0.0000 Press    =      -404.8263 
---------------- Step   179000 ----- CPU =   2816.4351 (sec) ----------------
TotEng   =   -469601.8804 KinEng   =     47403.4959 Temp     =      2450.7460 
PotEng   =   -517005.3763 E_bond   =         0.0000 E_angle  =         0.0000 
E_dihed  =         0.0000 E_impro  =         0.0000 E_vdwl   =   -509117.6251 
E_coul   =     -7887.7512 E_long   =         0.0000 Press    =      -326.9684 
---------------- Step   180000 ----- CPU =   2831.6278 (sec) ----------------
TotEng   =   -469481.6004 KinEng   =     47174.7929 Temp     =      2438.9221 
PotEng   =   -516656.3934 E_bond   =         0.0000 E_angle  =         0.0000 
E_dihed  =         0.0000 E_impro  =         0.0000 E_vdwl   =   -508795.7448 
E_coul   =     -7860.6486 E_long   =         0.0000 Press    =     -1151.7262 
---------------- Step   181000 ----- CPU =   2846.8735 (sec) ----------------
TotEng   =   -468960.7836 KinEng   =     48378.6242 Temp     =      2501.1598 
PotEng   =   -517339.4078 E_bond   =         0.0000 E_angle  =         0.0000 
E_dihed  =         0.0000 E_impro  =         0.0000 E_vdwl   =   -509490.7385 
E_coul   =     -7848.6693 E_long   =         0.0000 Press    =       303.3480 
---------------- Step   182000 ----- CPU =   2861.2659 (sec) ----------------
TotEng   =   -468239.4778 KinEng   =     49093.7101 Temp     =      2538.1295 
PotEng   =   -517333.1879 E_bond   =         0.0000 E_angle  =         0.0000 
E_dihed  =         0.0000 E_impro  =         0.0000 E_vdwl   =   -509471.7685 
E_coul   =     -7861.4194 E_long   =         0.0000 Press    =      2152.0353 
---------------- Step   183000 ----- CPU =   2875.8661 (sec) ----------------
TotEng   =   -468583.9813 KinEng   =     49011.2546 Temp     =      2533.8666 
PotEng   =   -517595.2359 E_bond   =         0.0000 E_angle  =         0.0000 
E_dihed  =         0.0000 E_impro  =         0.0000 E_vdwl   =   -509730.5023 
E_coul   =     -7864.7336 E_long   =         0.0000 Press    =        24.9598 
---------------- Step   184000 ----- CPU =   2890.8597 (sec) ----------------
TotEng   =   -469835.9978 KinEng   =     49122.8308 Temp     =      2539.6350 
PotEng   =   -518958.8286 E_bond   =         0.0000 E_angle  =         0.0000 
E_dihed  =         0.0000 E_impro  =         0.0000 E_vdwl   =   -511082.3161 
E_coul   =     -7876.5125 E_long   =         0.0000 Press    =      2567.5453 
---------------- Step   185000 ----- CPU =   2905.7601 (sec) ----------------
TotEng   =   -469811.0970 KinEng   =     48696.9213 Temp     =      2517.6156 
PotEng   =   -518508.0183 E_bond   =         0.0000 E_angle  =         0.0000 
E_dihed  =         0.0000 E_impro  =         0.0000 E_vdwl   =   -510593.1484 
E_coul   =     -7914.8699 E_long   =         0.0000 Press    =      1648.4473 
---------------- Step   186000 ----- CPU =   2920.6255 (sec) ----------------
TotEng   =   -469237.0770 KinEng   =     48692.3940 Temp     =      2517.3816 
PotEng   =   -517929.4710 E_bond   =         0.0000 E_angle  =         0.0000 
E_dihed  =         0.0000 E_impro  =         0.0000 E_vdwl   =   -510022.3714 
E_coul   =     -7907.0997 E_long   =         0.0000 Press    =      1477.2562 
---------------- Step   187000 ----- CPU =   2935.6862 (sec) ----------------
TotEng   =   -468657.5859 KinEng   =     48554.0513 Temp     =      2510.2293 
PotEng   =   -517211.6372 E_bond   =         0.0000 E_angle  =         0.0000 
E_dihed  =         0.0000 E_impro  =         0.0000 E_vdwl   =   -509293.3747 
E_coul   =     -7918.2625 E_long   =         0.0000 Press    =       -76.1324 
---------------- Step   188000 ----- CPU =   2950.3840 (sec) ----------------
TotEng   =   -468607.6086 KinEng   =     47961.8080 Temp     =      2479.6105 
PotEng   =   -516569.4166 E_bond   =         0.0000 E_angle  =         0.0000 
E_dihed  =         0.0000 E_impro  =         0.0000 E_vdwl   =   -508732.5875 
E_coul   =     -7836.8291 E_long   =         0.0000 Press    =      2115.8847 
---------------- Step   189000 ----- CPU =   2965.3886 (sec) ----------------
TotEng   =   -469722.6420 KinEng   =     47430.8694 Temp     =      2452.1612 
PotEng   =   -517153.5115 E_bond   =         0.0000 E_angle  =         0.0000 
E_dihed  =         0.0000 E_impro  =         0.0000 E_vdwl   =   -509353.4434 
E_coul   =     -7800.0680 E_long   =         0.0000 Press    =      -171.4972 
---------------- Step   190000 ----- CPU =   2980.3717 (sec) ----------------
TotEng   =   -470125.8998 KinEng   =     47104.6572 Temp     =      2435.2961 
PotEng   =   -517230.5570 E_bond   =         0.0000 E_angle  =         0.0000 
E_dihed  =         0.0000 E_impro  =         0.0000 E_vdwl   =   -509438.9031 
E_coul   =     -7791.6539 E_long   =         0.0000 Press    =      1115.1747 
---------------- Step   191000 ----- CPU =   2995.4222 (sec) ----------------
TotEng   =   -469399.7252 KinEng   =     49053.9846 Temp     =      2536.0757 
PotEng   =   -518453.7098 E_bond   =         0.0000 E_angle  =         0.0000 
E_dihed  =         0.0000 E_impro  =         0.0000 E_vdwl   =   -510695.2468 
E_coul   =     -7758.4629 E_long   =         0.0000 Press    =      2557.0370 
---------------- Step   192000 ----- CPU =   3010.2511 (sec) ----------------
TotEng   =   -468647.4769 KinEng   =     48793.5075 Temp     =      2522.6091 
PotEng   =   -517440.9843 E_bond   =         0.0000 E_angle  =         0.0000 
E_dihed  =         0.0000 E_impro  =         0.0000 E_vdwl   =   -509599.6345 
E_coul   =     -7841.3498 E_long   =         0.0000 Press    =       154.1500 
---------------- Step   193000 ----- CPU =   3025.2652 (sec) ----------------
TotEng   =   -468820.9699 KinEng   =     48416.1584 Temp     =      2503.1003 
PotEng   =   -517237.1282 E_bond   =         0.0000 E_angle  =         0.0000 
E_dihed  =         0.0000 E_impro  =         0.0000 E_vdwl   =   -509402.1820 
E_coul   =     -7834.9462 E_long   =         0.0000 Press    =      1501.8746 
---------------- Step   194000 ----- CPU =   3040.2073 (sec) ----------------
TotEng   =   -469254.9501 KinEng   =     48669.1643 Temp     =      2516.1806 
PotEng   =   -517924.1143 E_bond   =         0.0000 E_angle  =         0.0000 
E_dihed  =         0.0000 E_impro  =         0.0000 E_vdwl   =   -510031.6519 
E_coul   =     -7892.4624 E_long   =         0.0000 Press    =      -818.8078 
---------------- Step   195000 ----- CPU =   3055.3730 (sec) ----------------
TotEng   =   -469378.0471 KinEng   =     49442.2103 Temp     =      2556.1469 
PotEng   =   -518820.2573 E_bond   =         0.0000 E_angle  =         0.0000 
E_dihed  =         0.0000 E_impro  =         0.0000 E_vdwl   =   -510946.7168 
E_coul   =     -7873.5405 E_long   =         0.0000 Press    =      2227.6014 
---------------- Step   196000 ----- CPU =   3070.0670 (sec) ----------------
TotEng   =   -469376.4650 KinEng   =     48800.3190 Temp     =      2522.9613 
PotEng   =   -518176.7840 E_bond   =         0.0000 E_angle  =         0.0000 
E_dihed  =         0.0000 E_impro  =         0.0000 E_vdwl   =   -510295.6809 
E_coul   =     -7881.1031 E_long   =         0.0000 Press    =      -104.4129 
---------------- Step   197000 ----- CPU =   3085.2275 (sec) ----------------
TotEng   =   -469373.3353 KinEng   =     48439.9064 Temp     =      2504.3281 
PotEng   =   -517813.2417 E_bond   =         0.0000 E_angle  =         0.0000 
E_dihed  =         0.0000 E_impro  =         0.0000 E_vdwl   =   -509960.0917 
E_coul   =     -7853.1500 E_long   =         0.0000 Press    =      -486.9570 
---------------- Step   198000 ----- CPU =   3099.8827 (sec) ----------------
TotEng   =   -469325.3306 KinEng   =     48590.5092 Temp     =      2512.1142 
[...]
E_dihed  =         0.0000 E_impro  =         0.0000 E_vdwl   =   -532313.8543 
E_coul   =    -14680.8577 E_long   =         0.0000 Press    =      6825.1382 
---------------- Step  2454000 ----- CPU =  33826.1677 (sec) ----------------
TotEng   =   -497980.2309 KinEng   =     48611.3644 Temp     =      2513.1924 
PotEng   =   -546591.5953 E_bond   =         0.0000 E_angle  =         0.0000 
E_dihed  =         0.0000 E_impro  =         0.0000 E_vdwl   =   -532004.2541 
E_coul   =    -14587.3412 E_long   =         0.0000 Press    =      4333.9791 
---------------- Step  2455000 ----- CPU =  33839.0880 (sec) ----------------
TotEng   =   -496832.0886 KinEng   =     49047.8075 Temp     =      2535.7564 
PotEng   =   -545879.8961 E_bond   =         0.0000 E_angle  =         0.0000 
E_dihed  =         0.0000 E_impro  =         0.0000 E_vdwl   =   -531212.7401 
E_coul   =    -14667.1559 E_long   =         0.0000 Press    =      4015.3499 
---------------- Step  2456000 ----- CPU =  33851.7843 (sec) ----------------
TotEng   =   -497102.8283 KinEng   =     48538.1836 Temp     =      2509.4090 
PotEng   =   -545641.0119 E_bond   =         0.0000 E_angle  =         0.0000 
E_dihed  =         0.0000 E_impro  =         0.0000 E_vdwl   =   -530886.1997 
E_coul   =    -14754.8122 E_long   =         0.0000 Press    =      4675.2999 
---------------- Step  2457000 ----- CPU =  33864.5902 (sec) ----------------
TotEng   =   -497729.3817 KinEng   =     48649.7576 Temp     =      2515.1773 
PotEng   =   -546379.1393 E_bond   =         0.0000 E_angle  =         0.0000 
E_dihed  =         0.0000 E_impro  =         0.0000 E_vdwl   =   -531683.4781 
E_coul   =    -14695.6611 E_long   =         0.0000 Press    =      4827.9465 
---------------- Step  2458000 ----- CPU =  33877.8644 (sec) ----------------
TotEng   =   -497958.5107 KinEng   =     48255.6778 Temp     =      2494.8035 
PotEng   =   -546214.1885 E_bond   =         0.0000 E_angle  =         0.0000 
E_dihed  =         0.0000 E_impro  =         0.0000 E_vdwl   =   -531434.9519 
E_coul   =    -14779.2365 E_long   =         0.0000 Press    =      3664.4447 
---------------- Step  2459000 ----- CPU =  33890.4557 (sec) ----------------
TotEng   =   -497933.9088 KinEng   =     48286.6431 Temp     =      2496.4044 
PotEng   =   -546220.5519 E_bond   =         0.0000 E_angle  =         0.0000 
E_dihed  =         0.0000 E_impro  =         0.0000 E_vdwl   =   -531522.1450 
E_coul   =    -14698.4069 E_long   =         0.0000 Press    =      3790.3111 
---------------- Step  2460000 ----- CPU =  33902.9318 (sec) ----------------
TotEng   =   -497914.4258 KinEng   =     48232.2770 Temp     =      2493.5937 
PotEng   =   -546146.7027 E_bond   =         0.0000 E_angle  =         0.0000 
E_dihed  =         0.0000 E_impro  =         0.0000 E_vdwl   =   -531369.4178 
E_coul   =    -14777.2849 E_long   =         0.0000 Press    =      4512.1569 
---------------- Step  2461000 ----- CPU =  33915.9463 (sec) ----------------
TotEng   =   -497691.3362 KinEng   =     48595.1152 Temp     =      2512.3523 
PotEng   =   -546286.4514 E_bond   =         0.0000 E_angle  =         0.0000 
E_dihed  =         0.0000 E_impro  =         0.0000 E_vdwl   =   -531453.8242 
E_coul   =    -14832.6272 E_long   =         0.0000 Press    =      5177.9193 
---------------- Step  2462000 ----- CPU =  33928.9396 (sec) ----------------
TotEng   =   -497633.1796 KinEng   =     48739.2427 Temp     =      2519.8037 
PotEng   =   -546372.4224 E_bond   =         0.0000 E_angle  =         0.0000 
E_dihed  =         0.0000 E_impro  =         0.0000 E_vdwl   =   -531576.7848 
E_coul   =    -14795.6376 E_long   =         0.0000 Press    =      6359.7337 
---------------- Step  2463000 ----- CPU =  33941.3775 (sec) ----------------
TotEng   =   -498047.2656 KinEng   =     48543.6088 Temp     =      2509.6894 
PotEng   =   -546590.8743 E_bond   =         0.0000 E_angle  =         0.0000 
E_dihed  =         0.0000 E_impro  =         0.0000 E_vdwl   =   -531832.9748 
E_coul   =    -14757.8995 E_long   =         0.0000 Press    =      5508.5959 
---------------- Step  2464000 ----- CPU =  33954.0326 (sec) ----------------
TotEng   =   -498558.9853 KinEng   =     47789.4635 Temp     =      2470.7004 
PotEng   =   -546348.4488 E_bond   =         0.0000 E_angle  =         0.0000 
E_dihed  =         0.0000 E_impro  =         0.0000 E_vdwl   =   -531540.4052 
E_coul   =    -14808.0436 E_long   =         0.0000 Press    =      3356.4536 
---------------- Step  2465000 ----- CPU =  33966.3077 (sec) ----------------
TotEng   =   -498239.1176 KinEng   =     48247.4914 Temp     =      2494.3803 
PotEng   =   -546486.6091 E_bond   =         0.0000 E_angle  =         0.0000 
E_dihed  =         0.0000 E_impro  =         0.0000 E_vdwl   =   -531564.9252 
E_coul   =    -14921.6839 E_long   =         0.0000 Press    =      5374.8762 
---------------- Step  2466000 ----- CPU =  33978.6599 (sec) ----------------
TotEng   =   -497093.9145 KinEng   =     49051.6286 Temp     =      2535.9539 
PotEng   =   -546145.5430 E_bond   =         0.0000 E_angle  =         0.0000 
E_dihed  =         0.0000 E_impro  =         0.0000 E_vdwl   =   -531315.0000 
E_coul   =    -14830.5430 E_long   =         0.0000 Press    =      4787.3381 
---------------- Step  2467000 ----- CPU =  33991.9715 (sec) ----------------
TotEng   =   -497313.4372 KinEng   =     48170.0378 Temp     =      2490.3759 
PotEng   =   -545483.4749 E_bond   =         0.0000 E_angle  =         0.0000 
E_dihed  =         0.0000 E_impro  =         0.0000 E_vdwl   =   -530673.1893 
E_coul   =    -14810.2856 E_long   =         0.0000 Press    =      5043.8663 
---------------- Step  2468000 ----- CPU =  34004.5127 (sec) ----------------
TotEng   =   -497991.7566 KinEng   =     48270.6940 Temp     =      2495.5798 
PotEng   =   -546262.4506 E_bond   =         0.0000 E_angle  =         0.0000 
E_dihed  =         0.0000 E_impro  =         0.0000 E_vdwl   =   -531358.0799 
E_coul   =    -14904.3707 E_long   =         0.0000 Press    =      4107.6507 
---------------- Step  2469000 ----- CPU =  34017.0291 (sec) ----------------
TotEng   =   -498120.1386 KinEng   =     48098.4754 Temp     =      2486.6762 
PotEng   =   -546218.6140 E_bond   =         0.0000 E_angle  =         0.0000 
E_dihed  =         0.0000 E_impro  =         0.0000 E_vdwl   =   -531520.5722 
E_coul   =    -14698.0418 E_long   =         0.0000 Press    =      5285.3938 
---------------- Step  2470000 ----- CPU =  34029.5692 (sec) ----------------
TotEng   =   -498046.8433 KinEng   =     48314.4699 Temp     =      2497.8430 
PotEng   =   -546361.3131 E_bond   =         0.0000 E_angle  =         0.0000 
E_dihed  =         0.0000 E_impro  =         0.0000 E_vdwl   =   -531660.6276 
E_coul   =    -14700.6855 E_long   =         0.0000 Press    =      5226.5649 
---------------- Step  2471000 ----- CPU =  34042.0094 (sec) ----------------
TotEng   =   -497958.3128 KinEng   =     48257.9180 Temp     =      2494.9193 
PotEng   =   -546216.2308 E_bond   =         0.0000 E_angle  =         0.0000 
E_dihed  =         0.0000 E_impro  =         0.0000 E_vdwl   =   -531421.9525 
E_coul   =    -14794.2783 E_long   =         0.0000 Press    =      3120.1997 
---------------- Step  2472000 ----- CPU =  34055.3020 (sec) ----------------
TotEng   =   -498079.0875 KinEng   =     48164.2063 Temp     =      2490.0745 
PotEng   =   -546243.2938 E_bond   =         0.0000 E_angle  =         0.0000 
E_dihed  =         0.0000 E_impro  =         0.0000 E_vdwl   =   -531415.9096 
E_coul   =    -14827.3842 E_long   =         0.0000 Press    =      6491.1669 
---------------- Step  2473000 ----- CPU =  34067.9322 (sec) ----------------
TotEng   =   -499083.2194 KinEng   =     47856.4221 Temp     =      2474.1621 
PotEng   =   -546939.6416 E_bond   =         0.0000 E_angle  =         0.0000 
E_dihed  =         0.0000 E_impro  =         0.0000 E_vdwl   =   -532211.1238 
E_coul   =    -14728.5178 E_long   =         0.0000 Press    =      4945.4251 
---------------- Step  2474000 ----- CPU =  34080.4293 (sec) ----------------
TotEng   =   -499729.5043 KinEng   =     46991.7115 Temp     =      2429.4568 
PotEng   =   -546721.2159 E_bond   =         0.0000 E_angle  =         0.0000 
E_dihed  =         0.0000 E_impro  =         0.0000 E_vdwl   =   -531971.2290 
E_coul   =    -14749.9869 E_long   =         0.0000 Press    =      4615.6911 
---------------- Step  2475000 ----- CPU =  34092.5979 (sec) ----------------
TotEng   =   -498673.1465 KinEng   =     48248.1057 Temp     =      2494.4120 
PotEng   =   -546921.2522 E_bond   =         0.0000 E_angle  =         0.0000 
E_dihed  =         0.0000 E_impro  =         0.0000 E_vdwl   =   -532067.0408 
E_coul   =    -14854.2115 E_long   =         0.0000 Press    =      4981.6695 
---------------- Step  2476000 ----- CPU =  34104.6695 (sec) ----------------
TotEng   =   -498002.3302 KinEng   =     48668.1072 Temp     =      2516.1260 
PotEng   =   -546670.4373 E_bond   =         0.0000 E_angle  =         0.0000 
E_dihed  =         0.0000 E_impro  =         0.0000 E_vdwl   =   -531879.2797 
E_coul   =    -14791.1577 E_long   =         0.0000 Press    =      6962.9916 
---------------- Step  2477000 ----- CPU =  34116.6517 (sec) ----------------
TotEng   =   -497741.1870 KinEng   =     48359.7310 Temp     =      2500.1830 
PotEng   =   -546100.9179 E_bond   =         0.0000 E_angle  =         0.0000 
E_dihed  =         0.0000 E_impro  =         0.0000 E_vdwl   =   -531315.6534 
E_coul   =    -14785.2645 E_long   =         0.0000 Press    =      3076.3077 
---------------- Step  2478000 ----- CPU =  34128.9507 (sec) ----------------
TotEng   =   -498005.8771 KinEng   =     48548.9223 Temp     =      2509.9641 
PotEng   =   -546554.7994 E_bond   =         0.0000 E_angle  =         0.0000 
E_dihed  =         0.0000 E_impro  =         0.0000 E_vdwl   =   -531829.8601 
E_coul   =    -14724.9393 E_long   =         0.0000 Press    =      6386.5027 
---------------- Step  2479000 ----- CPU =  34142.0970 (sec) ----------------
TotEng   =   -498954.7680 KinEng   =     47612.6465 Temp     =      2461.5590 
PotEng   =   -546567.4144 E_bond   =         0.0000 E_angle  =         0.0000 
E_dihed  =         0.0000 E_impro  =         0.0000 E_vdwl   =   -531708.3817 
E_coul   =    -14859.0327 E_long   =         0.0000 Press    =      4681.2675 
---------------- Step  2480000 ----- CPU =  34154.1073 (sec) ----------------
TotEng   =   -499333.8865 KinEng   =     47619.5758 Temp     =      2461.9172 
PotEng   =   -546953.4623 E_bond   =         0.0000 E_angle  =         0.0000 
E_dihed  =         0.0000 E_impro  =         0.0000 E_vdwl   =   -532062.0244 
E_coul   =    -14891.4379 E_long   =         0.0000 Press    =      5013.0005 
---------------- Step  2481000 ----- CPU =  34166.4052 (sec) ----------------
TotEng   =   -498019.3784 KinEng   =     48488.4547 Temp     =      2506.8380 
PotEng   =   -546507.8331 E_bond   =         0.0000 E_angle  =         0.0000 
E_dihed  =         0.0000 E_impro  =         0.0000 E_vdwl   =   -531732.8148 
E_coul   =    -14775.0183 E_long   =         0.0000 Press    =      3867.4912 
---------------- Step  2482000 ----- CPU =  34178.8824 (sec) ----------------
TotEng   =   -497607.0128 KinEng   =     49182.6173 Temp     =      2542.7260 
PotEng   =   -546789.6301 E_bond   =         0.0000 E_angle  =         0.0000 
E_dihed  =         0.0000 E_impro  =         0.0000 E_vdwl   =   -532159.8342 
E_coul   =    -14629.7958 E_long   =         0.0000 Press    =      5031.8611 
---------------- Step  2483000 ----- CPU =  34191.3352 (sec) ----------------
TotEng   =   -498093.4928 KinEng   =     48369.1776 Temp     =      2500.6714 
PotEng   =   -546462.6704 E_bond   =         0.0000 E_angle  =         0.0000 
E_dihed  =         0.0000 E_impro  =         0.0000 E_vdwl   =   -531679.3387 
E_coul   =    -14783.3317 E_long   =         0.0000 Press    =      6451.2362 
---------------- Step  2484000 ----- CPU =  34203.6406 (sec) ----------------
TotEng   =   -498369.9565 KinEng   =     47692.8020 Temp     =      2465.7030 
PotEng   =   -546062.7585 E_bond   =         0.0000 E_angle  =         0.0000 
E_dihed  =         0.0000 E_impro  =         0.0000 E_vdwl   =   -531209.4836 
E_coul   =    -14853.2748 E_long   =         0.0000 Press    =      4178.9485 
---------------- Step  2485000 ----- CPU =  34216.6200 (sec) ----------------
TotEng   =   -497799.9548 KinEng   =     48560.6521 Temp     =      2510.5706 
PotEng   =   -546360.6069 E_bond   =         0.0000 E_angle  =         0.0000 
E_dihed  =         0.0000 E_impro  =         0.0000 E_vdwl   =   -531457.9477 
E_coul   =    -14902.6592 E_long   =         0.0000 Press    =      5881.3965 
---------------- Step  2486000 ----- CPU =  34229.1744 (sec) ----------------
TotEng   =   -496863.6675 KinEng   =     49378.6675 Temp     =      2552.8617 
PotEng   =   -546242.3350 E_bond   =         0.0000 E_angle  =         0.0000 
E_dihed  =         0.0000 E_impro  =         0.0000 E_vdwl   =   -531478.7096 
E_coul   =    -14763.6254 E_long   =         0.0000 Press    =      5111.0578 
---------------- Step  2487000 ----- CPU =  34241.6182 (sec) ----------------
TotEng   =   -497456.9219 KinEng   =     49015.9628 Temp     =      2534.1100 
PotEng   =   -546472.8847 E_bond   =         0.0000 E_angle  =         0.0000 
E_dihed  =         0.0000 E_impro  =         0.0000 E_vdwl   =   -531772.0514 
E_coul   =    -14700.8333 E_long   =         0.0000 Press    =      6180.3665 
---------------- Step  2488000 ----- CPU =  34254.6778 (sec) ----------------
TotEng   =   -498399.1173 KinEng   =     47959.5148 Temp     =      2479.4920 
PotEng   =   -546358.6321 E_bond   =         0.0000 E_angle  =         0.0000 
E_dihed  =         0.0000 E_impro  =         0.0000 E_vdwl   =   -531635.0504 
E_coul   =    -14723.5816 E_long   =         0.0000 Press    =      4559.8184 
---------------- Step  2489000 ----- CPU =  34267.7736 (sec) ----------------
TotEng   =   -498251.5901 KinEng   =     48188.0889 Temp     =      2491.3092 
PotEng   =   -546439.6790 E_bond   =         0.0000 E_angle  =         0.0000 
E_dihed  =         0.0000 E_impro  =         0.0000 E_vdwl   =   -531710.2029 
E_coul   =    -14729.4762 E_long   =         0.0000 Press    =      5894.6863 
---------------- Step  2490000 ----- CPU =  34279.8215 (sec) ----------------
TotEng   =   -497786.1834 KinEng   =     48903.2575 Temp     =      2528.2832 
PotEng   =   -546689.4409 E_bond   =         0.0000 E_angle  =         0.0000 
E_dihed  =         0.0000 E_impro  =         0.0000 E_vdwl   =   -532053.3383 
E_coul   =    -14636.1027 E_long   =         0.0000 Press    =      3882.2340 
---------------- Step  2491000 ----- CPU =  34291.9015 (sec) ----------------
TotEng   =   -497741.5655 KinEng   =     48308.2243 Temp     =      2497.5201 
PotEng   =   -546049.7898 E_bond   =         0.0000 E_angle  =         0.0000 
E_dihed  =         0.0000 E_impro  =         0.0000 E_vdwl   =   -531192.4672 
E_coul   =    -14857.3227 E_long   =         0.0000 Press    =      4863.9636 
---------------- Step  2492000 ----- CPU =  34303.9184 (sec) ----------------
TotEng   =   -498829.6659 KinEng   =     48426.9505 Temp     =      2503.6582 
PotEng   =   -547256.6164 E_bond   =         0.0000 E_angle  =         0.0000 
E_dihed  =         0.0000 E_impro  =         0.0000 E_vdwl   =   -532232.3748 
E_coul   =    -15024.2416 E_long   =         0.0000 Press    =      4107.9641 
---------------- Step  2493000 ----- CPU =  34316.2408 (sec) ----------------
TotEng   =   -499303.4577 KinEng   =     47115.0349 Temp     =      2435.8326 
PotEng   =   -546418.4926 E_bond   =         0.0000 E_angle  =         0.0000 
E_dihed  =         0.0000 E_impro  =         0.0000 E_vdwl   =   -531468.0546 
E_coul   =    -14950.4380 E_long   =         0.0000 Press    =      4450.6084 
---------------- Step  2494000 ----- CPU =  34328.3755 (sec) ----------------
TotEng   =   -498520.9214 KinEng   =     48503.7677 Temp     =      2507.6297 
PotEng   =   -547024.6891 E_bond   =         0.0000 E_angle  =         0.0000 
E_dihed  =         0.0000 E_impro  =         0.0000 E_vdwl   =   -532105.2679 
E_coul   =    -14919.4212 E_long   =         0.0000 Press    =      3903.6352 
---------------- Step  2495000 ----- CPU =  34341.0318 (sec) ----------------
TotEng   =   -498117.2426 KinEng   =     48307.0420 Temp     =      2497.4590 
PotEng   =   -546424.2846 E_bond   =         0.0000 E_angle  =         0.0000 
E_dihed  =         0.0000 E_impro  =         0.0000 E_vdwl   =   -531560.1167 
E_coul   =    -14864.1679 E_long   =         0.0000 Press    =      4189.5663 
---------------- Step  2496000 ----- CPU =  34353.4376 (sec) ----------------
TotEng   =   -498162.0996 KinEng   =     48595.7443 Temp     =      2512.3848 
PotEng   =   -546757.8440 E_bond   =         0.0000 E_angle  =         0.0000 
E_dihed  =         0.0000 E_impro  =         0.0000 E_vdwl   =   -531791.0521 
E_coul   =    -14966.7919 E_long   =         0.0000 Press    =      5402.5488 
---------------- Step  2497000 ----- CPU =  34365.9968 (sec) ----------------
TotEng   =   -498296.7203 KinEng   =     48396.0382 Temp     =      2502.0601 
PotEng   =   -546692.7585 E_bond   =         0.0000 E_angle  =         0.0000 
E_dihed  =         0.0000 E_impro  =         0.0000 E_vdwl   =   -531683.2725 
E_coul   =    -15009.4860 E_long   =         0.0000 Press    =      4330.1887 
---------------- Step  2498000 ----- CPU =  34378.6831 (sec) ----------------
TotEng   =   -498308.8720 KinEng   =     48461.1586 Temp     =      2505.4268 
PotEng   =   -546770.0306 E_bond   =         0.0000 E_angle  =         0.0000 
E_dihed  =         0.0000 E_impro  =         0.0000 E_vdwl   =   -531843.4783 
E_coul   =    -14926.5523 E_long   =         0.0000 Press    =      3554.2710 
---------------- Step  2499000 ----- CPU =  34391.1560 (sec) ----------------
TotEng   =   -498567.7998 KinEng   =     47935.9236 Temp     =      2478.2723 
PotEng   =   -546503.7234 E_bond   =         0.0000 E_angle  =         0.0000 
E_dihed  =         0.0000 E_impro  =         0.0000 E_vdwl   =   -531637.7557 
E_coul   =    -14865.9676 E_long   =         0.0000 Press    =      5259.5951 
---------------- Step  2500000 ----- CPU =  34403.7439 (sec) ----------------
TotEng   =   -498679.5834 KinEng   =     47831.3662 Temp     =      2472.8667 
PotEng   =   -546510.9497 E_bond   =         0.0000 E_angle  =         0.0000 
E_dihed  =         0.0000 E_impro  =         0.0000 E_vdwl   =   -531613.7420 
E_coul   =    -14897.2077 E_long   =         0.0000 Press    =      5390.5614 
Loop time of 34404.4 on 84 procs for 2500000 steps with 6490 atoms

Performance: 0.628 ns/day, 38.227 hours/ns, 72.665 timesteps/s
99.8% CPU use with 84 MPI tasks x 1 OpenMP threads

MPI task timing breakdown:
Section |  min time  |  avg time  |  max time  |%varavg| %total
---------------------------------------------------------------
Pair    | 20722      | 24078      | 25163      | 629.5 | 69.98
Neigh   | 112.45     | 119.41     | 128.64     |  25.0 |  0.35
Comm    | 286.95     | 1542.2     | 5085.5     |2569.0 |  4.48
Output  | 190.63     | 224.51     | 224.92     |  24.8 |  0.65
Modify  | 8229.4     | 8434.3     | 8719       | 204.3 | 24.52
Other   |            | 6.156      |            |       |  0.02

Nlocal:    77.2619 ave 108 max 49 min
Histogram: 2 7 10 12 18 12 7 8 7 1
Nghost:    1589.08 ave 1752 max 1424 min
Histogram: 3 5 7 13 15 15 11 6 3 6
Neighs:    14508.6 ave 21614 max 7809 min
Histogram: 2 4 12 15 16 9 9 9 5 3

Total # of neighbors = 1218719
Ave neighs/atom = 187.784
Neighbor list builds = 25000
Dangerous builds not checked
#restart        1000 restart.*.equil


#write_data      nvt.data
write_restart   restart.rp3

Please see the log.cite file for references relevant to this simulation

Total wall time: 9:33:27
